ITEM: TIMESTEP
0
ITEM: NUMBER OF ATOMS
2
ITEM: BOX BOUNDS pp pp pp
-5.23605 54.2864
1.40777 51.0098
0.00696182 49.609
ITEM: ATOMS id type xu yu zu
 1 1 20.5647 24.2907 25.1369
 2 1 28.4857 28.1269 24.4791
ITEM: TIMESTEP
1
ITEM: NUMBER OF ATOMS
2
ITEM: BOX BOUNDS pp pp pp
-5.13605 54.1954
1.65401 51.0969
0.44239 49.8853
ITEM: ATOMS id type xu yu zu
 1 1 20.3561 24.4389 25.1498
 2 1 28.7033 28.312 25.1779
ITEM: TIMESTEP
2
ITEM: NUMBER OF ATOMS
2
ITEM: BOX BOUNDS pp pp pp
-5.11353 54.6393
1.9859 51.7799
-0.588993 49.205
ITEM: ATOMS id type xu yu zu
 1 1 21.2843 25.4517 24.3757
 2 1 28.2414 28.3141 24.2403
ITEM: TIMESTEP
3
ITEM: NUMBER OF ATOMS
2
ITEM: BOX BOUNDS pp pp pp
-6.22751 56.4243
2.4357 54.6455
-2.59403 49.6158
ITEM: ATOMS id type xu yu zu
 1 1 23.299 26.7143 23.2299
 2 1 26.8977 30.367 23.7918
ITEM: TIMESTEP
4
ITEM: NUMBER OF ATOMS
2
ITEM: BOX BOUNDS pp pp pp
-7.83257 57.8454
0.894798 55.6265
-3.13039 51.6013
ITEM: ATOMS id type xu yu zu
 1 1 23.4226 25.5276 23.3601
 2 1 26.5903 30.9937 25.1108
ITEM: TIMESTEP
5
ITEM: NUMBER OF ATOMS
2
ITEM: BOX BOUNDS pp pp pp
-8.23859 59.259
1.54272 57.7907
-4.03205 52.216
ITEM: ATOMS id type xu yu zu
 1 1 23.3937 26.309 23.5374
 2 1 27.6267 33.0245 24.6465
ITEM: TIMESTEP
6
ITEM: NUMBER OF ATOMS
2
ITEM: BOX BOUNDS pp pp pp
-9.37614 60.5116
0.770462 59.0103
-4.93075 53.3091
ITEM: ATOMS id type xu yu zu
 1 1 23.2121 25.5724 22.9197
 2 1 27.9234 34.2083 25.4586
ITEM: TIMESTEP
7
ITEM: NUMBER OF ATOMS
2
ITEM: BOX BOUNDS pp pp pp
-10.3605 61.3596
-0.539597 59.2272
-6.23633 53.5304
ITEM: ATOMS id type xu yu zu
 1 1 23.4155 26.1638 22.4434
 2 1 27.5836 32.5237 24.8508
ITEM: TIMESTEP
8
ITEM: NUMBER OF ATOMS
2
ITEM: BOX BOUNDS pp pp pp
-12.087 61.5205
-1.8874 59.4522
-6.96607 54.3736
ITEM: ATOMS id type xu yu zu
 1 1 23.8659 26.0389 21.8443
 2 1 25.5676 31.5259 25.5632
ITEM: TIMESTEP
9
ITEM: NUMBER OF ATOMS
2
ITEM: BOX BOUNDS pp pp pp
-12.8418 62.5937
-1.39763 61.4652
-7.43492 55.428
ITEM: ATOMS id type xu yu zu
 1 1 23.6827 26.7897 21.9114
 2 1 26.0691 33.2779 26.0816
ITEM: TIMESTEP
10
ITEM: NUMBER OF ATOMS
2
ITEM: BOX BOUNDS pp pp pp
-12.8834 63.682
-1.43452 62.37
-8.36438 55.4401
ITEM: ATOMS id type xu yu zu
 1 1 24.3617 27.7247 21.4119
 2 1 26.4368 33.2107 25.6638
ITEM: TIMESTEP
11
ITEM: NUMBER OF ATOMS
2
ITEM: BOX BOUNDS pp pp pp
-13.8945 64.2797
-1.5861 63.5591
-9.10476 56.0404
ITEM: ATOMS id type xu yu zu
 1 1 24.0974 27.8041 21.5797
 2 1 26.2878 34.1689 25.356
ITEM: TIMESTEP
12
ITEM: NUMBER OF ATOMS
2
ITEM: BOX BOUNDS pp pp pp
-15.2021 65.3
-2.03028 65.0548
-9.833 57.252
ITEM: ATOMS id type xu yu zu
 1 1 23.5386 27.7263 21.9534
 2 1 26.5593 35.2982 25.4656
ITEM: TIMESTEP
13
ITEM: NUMBER OF ATOMS
2
ITEM: BOX BOUNDS pp pp pp
-15.7294 66.2053
-2.73925 65.5396
-11.0299 57.249
ITEM: ATOMS id type xu yu zu
 1 1 23.7277 28.0374 21.0558
 2 1 26.7482 34.763 25.1633
ITEM: TIMESTEP
14
ITEM: NUMBER OF ATOMS
2
ITEM: BOX BOUNDS pp pp pp
-17.1965 66.9709
-3.91436 66.2251
-11.1853 58.9541
ITEM: ATOMS id type xu yu zu
 1 1 23.2845 28.1031 21.574
 2 1 26.49 34.2076 26.1948
ITEM: TIMESTEP
15
ITEM: NUMBER OF ATOMS
2
ITEM: BOX BOUNDS pp pp pp
-18.4048 68.0853
-4.21626 67.8589
-12.7025 59.3727
ITEM: ATOMS id type xu yu zu
 1 1 23.1491 29.0402 20.44
 2 1 26.5314 34.6023 26.2302
ITEM: TIMESTEP
16
ITEM: NUMBER OF ATOMS
2
ITEM: BOX BOUNDS pp pp pp
-18.6119 68.8619
-4.63621 68.2586
-13.2128 59.6819
ITEM: ATOMS id type xu yu zu
 1 1 23.6163 29.5254 20.4294
 2 1 26.6338 34.097 26.0398
ITEM: TIMESTEP
17
ITEM: NUMBER OF ATOMS
2
ITEM: BOX BOUNDS pp pp pp
-18.8118 70.0303
-4.78011 69.255
-14.3017 59.7334
ITEM: ATOMS id type xu yu zu
 1 1 24.4779 29.921 19.6081
 2 1 26.7406 34.5539 25.8236
ITEM: TIMESTEP
18
ITEM: NUMBER OF ATOMS
2
ITEM: BOX BOUNDS pp pp pp
-19.6398 70.123
-4.53989 70.2624
-14.5286 60.2738
ITEM: ATOMS id type xu yu zu
 1 1 24.8379 30.819 19.7448
 2 1 25.6453 34.9035 26.0003
ITEM: TIMESTEP
19
ITEM: NUMBER OF ATOMS
2
ITEM: BOX BOUNDS pp pp pp
-19.6659 71.9894
-5.23481 71.1445
-15.6401 60.7392
ITEM: ATOMS id type xu yu zu
 1 1 25.647 30.6882 19.3935
 2 1 26.6765 35.2215 25.7056
ITEM: TIMESTEP
20
ITEM: NUMBER OF ATOMS
2
ITEM: BOX BOUNDS pp pp pp
-20.9607 72.9527
-5.66415 72.597
-17.0922 61.1689
ITEM: ATOMS id type xu yu zu
 1 1 25.8304 30.8963 18.5107
 2 1 26.1616 36.0365 25.566
ITEM: TIMESTEP
21
ITEM: NUMBER OF ATOMS
2
ITEM: BOX BOUNDS pp pp pp
-21.4525 73.4436
-5.78356 73.2966
-17.2047 61.8754
ITEM: ATOMS id type xu yu zu
 1 1 26.1131 31.1938 18.6348
 2 1 25.878 36.3192 26.0359
ITEM: TIMESTEP
22
ITEM: NUMBER OF ATOMS
2
ITEM: BOX BOUNDS pp pp pp
-21.1094 74.4114
-5.85653 73.7442
-17.3931 62.2075
ITEM: ATOMS id type xu yu zu
 1 1 26.7837 31.9827 19.4486
 2 1 26.5184 35.9049 25.3658
ITEM: TIMESTEP
23
ITEM: NUMBER OF ATOMS
2
ITEM: BOX BOUNDS pp pp pp
-21.5394 75.1525
-6.43204 74.1445
-17.7842 62.7924
ITEM: ATOMS id type xu yu zu
 1 1 26.7861 31.7341 18.6591
 2 1 26.827 35.9784 26.349
ITEM: TIMESTEP
24
ITEM: NUMBER OF ATOMS
2
ITEM: BOX BOUNDS pp pp pp
-22.6378 75.4881
-6.95364 74.818
-18.5897 63.1819
ITEM: ATOMS id type xu yu zu
 1 1 26.5085 32.1261 19.1787
 2 1 26.3419 35.7383 25.4134
ITEM: TIMESTEP
25
ITEM: NUMBER OF ATOMS
2
ITEM: BOX BOUNDS pp pp pp
-22.9504 75.7606
-7.2879 74.9712
-19.5268 62.7323
ITEM: ATOMS id type xu yu zu
 1 1 26.2982 32.0791 18.2031
 2 1 26.512 35.6042 25.0024
ITEM: TIMESTEP
26
ITEM: NUMBER OF ATOMS
2
ITEM: BOX BOUNDS pp pp pp
-22.8683 77.2188
-7.14202 76.2639
-20.4576 62.9484
ITEM: ATOMS id type xu yu zu
 1 1 27.4404 32.9564 17.8489
 2 1 26.9102 36.1655 24.6419
ITEM: TIMESTEP
27
ITEM: NUMBER OF ATOMS
2
ITEM: BOX BOUNDS pp pp pp
-23.7325 77.8911
-8.24954 76.4368
-21.8794 62.8069
ITEM: ATOMS id type xu yu zu
 1 1 27.695 32.6623 16.9306
 2 1 26.4637 35.525 23.9969
ITEM: TIMESTEP
28
ITEM: NUMBER OF ATOMS
2
ITEM: BOX BOUNDS pp pp pp
-24.0727 78.6192
-8.92199 76.6546
-22.53 63.0465
ITEM: ATOMS id type xu yu zu
 1 1 28.2728 32.4233 16.8841
 2 1 26.2736 35.3092 23.6324
ITEM: TIMESTEP
29
ITEM: NUMBER OF ATOMS
2
ITEM: BOX BOUNDS pp pp pp
-24.5746 78.7808
-8.49207 77.6374
-22.9355 63.1939
ITEM: ATOMS id type xu yu zu
 1 1 28.3239 32.5404 16.7531
 2 1 25.8823 36.6049 23.5053
ITEM: TIMESTEP
30
ITEM: NUMBER OF ATOMS
2
ITEM: BOX BOUNDS pp pp pp
-24.7486 78.7904
-7.63142 78.651
-23.1116 63.1709
ITEM: ATOMS id type xu yu zu
 1 1 28.0776 33.5351 16.7017
 2 1 25.9643 37.4845 23.3575
ITEM: TIMESTEP
31
ITEM: NUMBER OF ATOMS
2
ITEM: BOX BOUNDS pp pp pp
-24.3892 79.9015
-7.3921 79.5169
-23.635 63.2739
ITEM: ATOMS id type xu yu zu
 1 1 28.4198 34.2402 16.3838
 2 1 27.0925 37.8845 23.255
ITEM: TIMESTEP
32
ITEM: NUMBER OF ATOMS
2
ITEM: BOX BOUNDS pp pp pp
-24.8996 80.2511
-7.7685 79.8571
-24.3575 63.2681
ITEM: ATOMS id type xu yu zu
 1 1 28.6574 33.9667 16.4042
 2 1 26.6941 38.1218 22.5063
ITEM: TIMESTEP
33
ITEM: NUMBER OF ATOMS
2
ITEM: BOX BOUNDS pp pp pp
-26.2517 80.336
-8.07932 80.7438
-24.8397 63.9834
ITEM: ATOMS id type xu yu zu
 1 1 28.0677 34.3589 16.147
 2 1 26.0167 38.3055 22.9967
ITEM: TIMESTEP
34
ITEM: NUMBER OF ATOMS
2
ITEM: BOX BOUNDS pp pp pp
-26.64 81.0222
-8.56397 81.1546
-25.976 63.7425
ITEM: ATOMS id type xu yu zu
 1 1 28.1816 34.1648 15.6095
 2 1 26.2006 38.4258 22.157
ITEM: TIMESTEP
35
ITEM: NUMBER OF ATOMS
2
ITEM: BOX BOUNDS pp pp pp
-26.7069 81.4375
-8.27647 81.8438
-26.5231 63.5972
ITEM: ATOMS id type xu yu zu
 1 1 28.1888 34.9675 15.2906
 2 1 26.5418 38.5999 21.7834
ITEM: TIMESTEP
36
ITEM: NUMBER OF ATOMS
2
ITEM: BOX BOUNDS pp pp pp
-27.0168 81.2887
-8.15421 82.1004
-26.7863 63.4683
ITEM: ATOMS id type xu yu zu
 1 1 27.913 35.4833 15.2281
 2 1 26.359 38.4629 21.4539
ITEM: TIMESTEP
37
ITEM: NUMBER OF ATOMS
2
ITEM: BOX BOUNDS pp pp pp
-27.6686 81.0777
-7.69494 82.927
-26.8043 63.8176
ITEM: ATOMS id type xu yu zu
 1 1 27.9544 36.6241 15.9524
 2 1 25.4547 38.608 21.0608
ITEM: TIMESTEP
38
ITEM: NUMBER OF ATOMS
2
ITEM: BOX BOUNDS pp pp pp
-27.6854 81.7819
-7.41138 83.8113
-27.0973 64.1255
ITEM: ATOMS id type xu yu zu
 1 1 28.1526 36.6979 15.5337
 2 1 25.9438 39.702 21.4945
ITEM: TIMESTEP
39
ITEM: NUMBER OF ATOMS
2
ITEM: BOX BOUNDS pp pp pp
-27.3689 82.6214
-7.31001 84.3485
-27.4796 64.1789
ITEM: ATOMS id type xu yu zu
 1 1 28.9362 36.2268 14.6487
 2 1 26.3163 40.8117 22.0506
ITEM: TIMESTEP
40
ITEM: NUMBER OF ATOMS
2
ITEM: BOX BOUNDS pp pp pp
-27.9217 82.9934
-7.70055 84.7287
-28.7091 63.7201
ITEM: ATOMS id type xu yu zu
 1 1 28.6147 36.9582 13.7993
 2 1 26.457 40.07 21.2117
ITEM: TIMESTEP
41
ITEM: NUMBER OF ATOMS
2
ITEM: BOX BOUNDS pp pp pp
-27.9036 83.4931
-7.45478 85.3758
-28.7788 64.0518
ITEM: ATOMS id type xu yu zu
 1 1 28.8626 37.6103 14.1973
 2 1 26.7268 40.3107 21.0758
ITEM: TIMESTEP
42
ITEM: NUMBER OF ATOMS
2
ITEM: BOX BOUNDS pp pp pp
-27.9944 83.7469
-6.82627 86.2915
-28.7743 64.3435
ITEM: ATOMS id type xu yu zu
 1 1 28.8915 37.7011 14.3356
 2 1 26.861 41.7642 21.2337
ITEM: TIMESTEP
43
ITEM: NUMBER OF ATOMS
2
ITEM: BOX BOUNDS pp pp pp
-28.2011 83.8755
-6.34759 87.0496
-28.554 64.8431
ITEM: ATOMS id type xu yu zu
 1 1 29.3622 38.2706 14.6791
 2 1 26.3122 42.4314 21.61
ITEM: TIMESTEP
44
ITEM: NUMBER OF ATOMS
2
ITEM: BOX BOUNDS pp pp pp
-27.8352 84.2244
-6.30495 87.078
-29.0086 64.3743
ITEM: ATOMS id type xu yu zu
 1 1 29.2854 38.3008 14.2075
 2 1 27.1038 42.4722 21.1582
ITEM: TIMESTEP
45
ITEM: NUMBER OF ATOMS
2
ITEM: BOX BOUNDS pp pp pp
-28.3442 84.1206
-5.84179 87.8789
-29.2476 64.473
ITEM: ATOMS id type xu yu zu
 1 1 29.4326 39.0919 14.1399
 2 1 26.3438 42.9452 21.0855
ITEM: TIMESTEP
46
ITEM: NUMBER OF ATOMS
2
ITEM: BOX BOUNDS pp pp pp
-28.0943 84.877
-6.30348 87.8392
-30.4459 63.6967
ITEM: ATOMS id type xu yu zu
 1 1 30.3304 38.6806 13.3138
 2 1 26.4523 42.8551 19.937
ITEM: TIMESTEP
47
ITEM: NUMBER OF ATOMS
2
ITEM: BOX BOUNDS pp pp pp
-28.3225 84.6867
-6.09148 88.0829
-30.2725 63.9019
ITEM: ATOMS id type xu yu zu
 1 1 29.9236 39.2667 13.6745
 2 1 26.4405 42.7247 19.9549
ITEM: TIMESTEP
48
ITEM: NUMBER OF ATOMS
2
ITEM: BOX BOUNDS pp pp pp
-28.1521 84.6486
-5.92803 88.0726
-30.2322 63.7684
ITEM: ATOMS id type xu yu zu
 1 1 29.9034 39.2394 13.5491
 2 1 26.593 42.9051 19.987
ITEM: TIMESTEP
49
ITEM: NUMBER OF ATOMS
2
ITEM: BOX BOUNDS pp pp pp
-27.8699 84.6881
-5.47378 88.3246
-30.3937 63.4047
ITEM: ATOMS id type xu yu zu
 1 1 29.9294 39.9228 13.199
 2 1 26.8888 42.9281 19.812
ITEM: TIMESTEP
50
ITEM: NUMBER OF ATOMS
2
ITEM: BOX BOUNDS pp pp pp
-28.179 84.4329
-5.22639 88.6168
-30.5695 63.2738
ITEM: ATOMS id type xu yu zu
 1 1 29.795 39.7175 12.5811
 2 1 26.4588 43.6729 20.1232
ITEM: TIMESTEP
51
ITEM: NUMBER OF ATOMS
2
ITEM: BOX BOUNDS pp pp pp
-27.5009 84.1369
-4.78933 88.2421
-30.6599 62.3716
ITEM: ATOMS id type xu yu zu
 1 1 30.0621 40.0913 12.4603
 2 1 26.5739 43.3615 19.2515
ITEM: TIMESTEP
52
ITEM: NUMBER OF ATOMS
2
ITEM: BOX BOUNDS pp pp pp
-26.9431 84.5731
-4.57436 88.3558
-30.2641 62.666
ITEM: ATOMS id type xu yu zu
 1 1 30.8631 39.7832 12.8438
 2 1 26.7668 43.9982 19.5581
ITEM: TIMESTEP
53
ITEM: NUMBER OF ATOMS
2
ITEM: BOX BOUNDS pp pp pp
-26.8887 84.6761
-4.36572 88.6049
-30.4015 62.5692
ITEM: ATOMS id type xu yu zu
 1 1 30.5644 40.3658 12.9491
 2 1 27.2229 43.8734 19.2185
ITEM: TIMESTEP
54
ITEM: NUMBER OF ATOMS
2
ITEM: BOX BOUNDS pp pp pp
-26.3892 84.1724
-3.63876 88.4959
-29.952 62.1827
ITEM: ATOMS id type xu yu zu
 1 1 31.1546 40.4212 12.7535
 2 1 26.6286 44.4359 19.4773
ITEM: TIMESTEP
55
ITEM: NUMBER OF ATOMS
2
ITEM: BOX BOUNDS pp pp pp
-25.3667 83.6565
-2.27639 88.5763
-28.5137 62.339
ITEM: ATOMS id type xu yu zu
 1 1 31.022 41.7183 13.6562
 2 1 27.2678 44.5817 20.169
ITEM: TIMESTEP
56
ITEM: NUMBER OF ATOMS
2
ITEM: BOX BOUNDS pp pp pp
-25.2036 84.1464
-2.35349 88.7715
-28.8872 62.2378
ITEM: ATOMS id type xu yu zu
 1 1 31.7675 41.3754 13.1836
 2 1 27.1753 45.0426 20.167
ITEM: TIMESTEP
57
ITEM: NUMBER OF ATOMS
2
ITEM: BOX BOUNDS pp pp pp
-25.0164 84.1772
-2.11886 88.8758
-29.3507 61.644
ITEM: ATOMS id type xu yu zu
 1 1 31.9774 41.5486 13.0589
 2 1 27.1835 45.2083 19.2345
ITEM: TIMESTEP
58
ITEM: NUMBER OF ATOMS
2
ITEM: BOX BOUNDS pp pp pp
-24.9856 83.6735
-1.60128 88.9479
-29.036 61.5132
ITEM: ATOMS id type xu yu zu
 1 1 31.617 41.9343 12.7934
 2 1 27.0709 45.4123 19.6839
ITEM: TIMESTEP
59
ITEM: NUMBER OF ATOMS
2
ITEM: BOX BOUNDS pp pp pp
-24.9124 83.2448
-0.981617 89.1494
-29.0122 61.1188
ITEM: ATOMS id type xu yu zu
 1 1 31.2942 42.5919 12.5284
 2 1 27.0381 45.5759 19.5782
ITEM: TIMESTEP
60
ITEM: NUMBER OF ATOMS
2
ITEM: BOX BOUNDS pp pp pp
-24.8816 82.9662
-1.19813 88.6751
-29.5003 60.3729
ITEM: ATOMS id type xu yu zu
 1 1 31.4139 42.2693 12.3294
 2 1 26.6707 45.2076 18.5432
ITEM: TIMESTEP
61
ITEM: NUMBER OF ATOMS
2
ITEM: BOX BOUNDS pp pp pp
-24.4802 81.9857
-0.0865135 88.6351
-28.7538 59.9678
ITEM: ATOMS id type xu yu zu
 1 1 31.2169 42.3235 12.6627
 2 1 26.2886 46.225 18.5513
ITEM: TIMESTEP
62
ITEM: NUMBER OF ATOMS
2
ITEM: BOX BOUNDS pp pp pp
-24.5468 82.1278
-0.0576401 88.8379
-28.7244 60.1711
ITEM: ATOMS id type xu yu zu
 1 1 31.3211 42.7443 12.5016
 2 1 26.26 46.0359 18.945
ITEM: TIMESTEP
63
ITEM: NUMBER OF ATOMS
2
ITEM: BOX BOUNDS pp pp pp
-23.7887 82.2292
0.560085 88.9084
-28.1936 60.1547
ITEM: ATOMS id type xu yu zu
 1 1 31.0909 43.2347 12.595
 2 1 27.3496 46.2337 19.3661
ITEM: TIMESTEP
64
ITEM: NUMBER OF ATOMS
2
ITEM: BOX BOUNDS pp pp pp
-23.9064 81.8524
0.452278 88.5846
-28.0996 60.0327
ITEM: ATOMS id type xu yu zu
 1 1 31.484 42.9756 13.1017
 2 1 26.4619 46.0613 18.8314
ITEM: TIMESTEP
65
ITEM: NUMBER OF ATOMS
2
ITEM: BOX BOUNDS pp pp pp
-23.1915 81.4813
0.68565 87.913
-27.6917 59.5356
ITEM: ATOMS id type xu yu zu
 1 1 31.779 42.7912 12.771
 2 1 26.5108 45.8074 19.0729
ITEM: TIMESTEP
66
ITEM: NUMBER OF ATOMS
2
ITEM: BOX BOUNDS pp pp pp
-23.1861 81.0945
0.978909 87.8795
-27.3809 59.5196
ITEM: ATOMS id type xu yu zu
 1 1 31.543 43.1432 12.5545
 2 1 26.3654 45.7152 19.5842
ITEM: TIMESTEP
67
ITEM: NUMBER OF ATOMS
2
ITEM: BOX BOUNDS pp pp pp
-22.8491 81.4092
1.05183 87.9337
-27.2554 59.6265
ITEM: ATOMS id type xu yu zu
 1 1 31.6509 43.3334 13.3239
 2 1 26.9092 45.6522 19.0472
ITEM: TIMESTEP
68
ITEM: NUMBER OF ATOMS
2
ITEM: BOX BOUNDS pp pp pp
-22.7698 81.1677
1.50456 88.1191
-26.8112 59.8033
ITEM: ATOMS id type xu yu zu
 1 1 31.7685 43.334 13.5034
 2 1 26.6294 46.2897 19.4886
ITEM: TIMESTEP
69
ITEM: NUMBER OF ATOMS
2
ITEM: BOX BOUNDS pp pp pp
-22.5302 81.0662
1.20335 87.5337
-26.9754 59.3549
ITEM: ATOMS id type xu yu zu
 1 1 31.8222 43.2924 13.2075
 2 1 26.7138 45.4447 19.1719
ITEM: TIMESTEP
70
ITEM: NUMBER OF ATOMS
2
ITEM: BOX BOUNDS pp pp pp
-22.4755 80.8119
1.92525 87.9981
-26.8739 59.1989
ITEM: ATOMS id type xu yu zu
 1 1 31.9201 44.0103 12.8185
 2 1 26.4163 45.913 19.5065
ITEM: TIMESTEP
71
ITEM: NUMBER OF ATOMS
2
ITEM: BOX BOUNDS pp pp pp
-22.4722 80.714
2.06052 88.049
-26.5053 59.4832
ITEM: ATOMS id type xu yu zu
 1 1 31.9763 44.1316 13.587
 2 1 26.2655 45.9779 19.3909
ITEM: TIMESTEP
72
ITEM: NUMBER OF ATOMS
2
ITEM: BOX BOUNDS pp pp pp
-22.2117 80.2579
2.62943 88.0208
-25.7106 59.6807
ITEM: ATOMS id type xu yu zu
 1 1 31.6994 44.7658 14.0306
 2 1 26.3469 45.8844 19.9395
ITEM: TIMESTEP
73
ITEM: NUMBER OF ATOMS
2
ITEM: BOX BOUNDS pp pp pp
-21.7319 80.2321
2.76684 87.7368
-25.8156 59.1544
ITEM: ATOMS id type xu yu zu
 1 1 32.1917 44.539 13.7593
 2 1 26.3085 45.9647 19.5794
ITEM: TIMESTEP
74
ITEM: NUMBER OF ATOMS
2
ITEM: BOX BOUNDS pp pp pp
-21.6506 79.2041
3.26992 87.3155
-25.0246 59.021
ITEM: ATOMS id type xu yu zu
 1 1 31.4512 44.864 14.2485
 2 1 26.1023 45.7215 19.748
ITEM: TIMESTEP
75
ITEM: NUMBER OF ATOMS
2
ITEM: BOX BOUNDS pp pp pp
-21.2374 79.4879
3.26546 87.2032
-25.0409 58.8968
ITEM: ATOMS id type xu yu zu
 1 1 32.523 44.9545 13.9478
 2 1 25.7275 45.5141 19.9081
ITEM: TIMESTEP
76
ITEM: NUMBER OF ATOMS
2
ITEM: BOX BOUNDS pp pp pp
-21.1017 79.6302
3.29964 87.243
-25.1847 58.7586
ITEM: ATOMS id type xu yu zu
 1 1 32.7007 44.9337 13.6236
 2 1 25.8278 45.6089 19.9504
ITEM: TIMESTEP
77
ITEM: NUMBER OF ATOMS
2
ITEM: BOX BOUNDS pp pp pp
-21.1055 78.9445
3.70615 87.0812
-24.6908 58.6842
ITEM: ATOMS id type xu yu zu
 1 1 32.2286 45.1474 14.3461
 2 1 25.6104 45.6399 19.6473
ITEM: TIMESTEP
78
ITEM: NUMBER OF ATOMS
2
ITEM: BOX BOUNDS pp pp pp
-21.1464 78.6914
3.92844 87.1266
-24.6772 58.5209
ITEM: ATOMS id type xu yu zu
 1 1 31.8684 45.6826 14.3567
 2 1 25.6766 45.3725 19.487
ITEM: TIMESTEP
79
ITEM: NUMBER OF ATOMS
2
ITEM: BOX BOUNDS pp pp pp
-21.1311 78.4951
4.66384 87.6857
-24.7821 58.2397
ITEM: ATOMS id type xu yu zu
 1 1 31.8052 46.4742 14.205
 2 1 25.5588 45.8753 19.2526
ITEM: TIMESTEP
80
ITEM: NUMBER OF ATOMS
2
ITEM: BOX BOUNDS pp pp pp
-20.4396 78.1429
4.93526 87.0873
-24.1002 58.0518
ITEM: ATOMS id type xu yu zu
 1 1 32.3018 46.3553 14.3587
 2 1 25.4014 45.6673 19.5929
ITEM: TIMESTEP
81
ITEM: NUMBER OF ATOMS
2
ITEM: BOX BOUNDS pp pp pp
-20.1946 76.9644
5.40865 86.3745
-22.9793 57.9865
ITEM: ATOMS id type xu yu zu
 1 1 31.739 46.1761 14.8711
 2 1 25.0308 45.607 20.1361
ITEM: TIMESTEP
82
ITEM: NUMBER OF ATOMS
2
ITEM: BOX BOUNDS pp pp pp
-20.1898 76.5217
5.40694 85.9998
-23.0144 57.5785
ITEM: ATOMS id type xu yu zu
 1 1 31.4388 45.9871 14.9634
 2 1 24.8932 45.4197 19.6007
ITEM: TIMESTEP
83
ITEM: NUMBER OF ATOMS
2
ITEM: BOX BOUNDS pp pp pp
-19.5354 77.2696
5.26722 85.9381
-23.1232 57.5477
ITEM: ATOMS id type xu yu zu
 1 1 32.5598 45.9465 15.2245
 2 1 25.1744 45.2588 19.1999
ITEM: TIMESTEP
84
ITEM: NUMBER OF ATOMS
2
ITEM: BOX BOUNDS pp pp pp
-19.527 77.3821
5.60639 86.364
-22.9606 57.797
ITEM: ATOMS id type xu yu zu
 1 1 32.8138 46.9039 15.6992
 2 1 25.0413 45.0665 19.1371
ITEM: TIMESTEP
85
ITEM: NUMBER OF ATOMS
2
ITEM: BOX BOUNDS pp pp pp
-19.4395 76.8431
5.70248 85.938
-22.7381 57.4973
ITEM: ATOMS id type xu yu zu
 1 1 32.1929 46.8713 15.3656
 2 1 25.2106 44.7691 19.3935
ITEM: TIMESTEP
86
ITEM: NUMBER OF ATOMS
2
ITEM: BOX BOUNDS pp pp pp
-19.236 75.9333
6.06759 85.3753
-22.2465 57.0613
ITEM: ATOMS id type xu yu zu
 1 1 32.102 46.3884 15.5652
 2 1 24.5952 45.0545 19.2496
ITEM: TIMESTEP
87
ITEM: NUMBER OF ATOMS
2
ITEM: BOX BOUNDS pp pp pp
-19.2741 75.7309
5.96154 85.1324
-21.7929 57.378
ITEM: ATOMS id type xu yu zu
 1 1 32.1145 46.5307 16.4748
 2 1 24.3423 44.5633 19.1104
ITEM: TIMESTEP
88
ITEM: NUMBER OF ATOMS
2
ITEM: BOX BOUNDS pp pp pp
-19.0736 75.4511
6.07957 84.8502
-21.2522 57.5184
ITEM: ATOMS id type xu yu zu
 1 1 32.0777 46.4685 16.8222
 2 1 24.2999 44.4612 19.444
ITEM: TIMESTEP
89
ITEM: NUMBER OF ATOMS
2
ITEM: BOX BOUNDS pp pp pp
-19.0239 75.6633
6.35101 85.257
-21.658 57.248
ITEM: ATOMS id type xu yu zu
 1 1 31.9531 46.8988 16.3604
 2 1 24.6863 44.7092 19.2296
ITEM: TIMESTEP
90
ITEM: NUMBER OF ATOMS
2
ITEM: BOX BOUNDS pp pp pp
-18.3464 75.0404
6.45966 84.2819
-20.6896 57.1326
ITEM: ATOMS id type xu yu zu
 1 1 32.5134 46.3119 16.9132
 2 1 24.1806 44.4297 19.5298
ITEM: TIMESTEP
91
ITEM: NUMBER OF ATOMS
2
ITEM: BOX BOUNDS pp pp pp
-18.1714 75.0766
6.35912 84.0657
-20.9097 56.7969
ITEM: ATOMS id type xu yu zu
 1 1 32.6772 46.0028 16.8693
 2 1 24.228 44.4221 19.0178
ITEM: TIMESTEP
92
ITEM: NUMBER OF ATOMS
2
ITEM: BOX BOUNDS pp pp pp
-18.0722 74.3515
6.97164 83.9914
-20.294 56.7257
ITEM: ATOMS id type xu yu zu
 1 1 32.0303 46.3154 17.4529
 2 1 24.249 44.6476 18.9788
ITEM: TIMESTEP
93
ITEM: NUMBER OF ATOMS
2
ITEM: BOX BOUNDS pp pp pp
-18.0049 73.9124
7.29674 83.8945
-19.8344 56.7633
ITEM: ATOMS id type xu yu zu
 1 1 31.9124 46.6113 17.6148
 2 1 23.995 44.5799 19.314
ITEM: TIMESTEP
94
ITEM: NUMBER OF ATOMS
2
ITEM: BOX BOUNDS pp pp pp
-17.8548 73.7586
7.49462 83.8391
-19.8032 56.5413
ITEM: ATOMS id type xu yu zu
 1 1 31.9708 47.1521 17.6954
 2 1 23.9331 44.1817 19.0428
ITEM: TIMESTEP
95
ITEM: NUMBER OF ATOMS
2
ITEM: BOX BOUNDS pp pp pp
-17.7845 73.5436
7.63049 83.7373
-19.5467 56.5601
ITEM: ATOMS id type xu yu zu
 1 1 31.9844 46.8283 17.7588
 2 1 23.7747 44.5394 19.2546
ITEM: TIMESTEP
96
ITEM: NUMBER OF ATOMS
2
ITEM: BOX BOUNDS pp pp pp
-17.1884 73.2616
7.66793 83.0429
-19.1276 56.2474
ITEM: ATOMS id type xu yu zu
 1 1 32.0945 46.2681 18.3646
 2 1 23.9787 44.4428 18.7552
ITEM: TIMESTEP
97
ITEM: NUMBER OF ATOMS
2
ITEM: BOX BOUNDS pp pp pp
-16.8354 72.882
7.74125 82.5057
-18.9164 55.8481
ITEM: ATOMS id type xu yu zu
 1 1 32.2259 45.9782 18.206
 2 1 23.8208 44.2688 18.7258
ITEM: TIMESTEP
98
ITEM: NUMBER OF ATOMS
2
ITEM: BOX BOUNDS pp pp pp
-16.8116 72.8827
8.03355 82.7788
-18.8425 55.9027
ITEM: ATOMS id type xu yu zu
 1 1 32.4677 46.3386 18.3315
 2 1 23.6034 44.4737 18.7288
ITEM: TIMESTEP
99
ITEM: NUMBER OF ATOMS
2
ITEM: BOX BOUNDS pp pp pp
-16.9138 72.5817
8.36372 82.9433
-18.6817 55.8979
ITEM: ATOMS id type xu yu zu
 1 1 31.9335 46.5693 18.6695
 2 1 23.7345 44.7377 18.5466
ITEM: TIMESTEP
100
ITEM: NUMBER OF ATOMS
2
ITEM: BOX BOUNDS pp pp pp
-16.6477 72.1086
8.34531 82.309
-18.1768 55.7868
ITEM: ATOMS id type xu yu zu
 1 1 31.9826 46.1131 18.8435
 2 1 23.4783 44.5411 18.7665
ITEM: TIMESTEP
101
ITEM: NUMBER OF ATOMS
2
ITEM: BOX BOUNDS pp pp pp
-16.0009 71.9062
8.31711 81.573
-17.6902 55.5657
ITEM: ATOMS id type xu yu zu
 1 1 32.0653 45.9322 19.0584
 2 1 23.84 43.9579 18.8171
ITEM: TIMESTEP
102
ITEM: NUMBER OF ATOMS
2
ITEM: BOX BOUNDS pp pp pp
-15.7753 72.0112
8.49265 81.6481
-17.5387 55.6167
ITEM: ATOMS id type xu yu zu
 1 1 32.1517 45.9572 19.2216
 2 1 24.0842 44.1835 18.8564
ITEM: TIMESTEP
103
ITEM: NUMBER OF ATOMS
2
ITEM: BOX BOUNDS pp pp pp
-16.1724 71.2025
8.89478 81.7072
-17.4575 55.3549
ITEM: ATOMS id type xu yu zu
 1 1 31.5525 45.84 19.2707
 2 1 23.4776 44.7619 18.6267
ITEM: TIMESTEP
104
ITEM: NUMBER OF ATOMS
2
ITEM: BOX BOUNDS pp pp pp
-16.2743 71.1509
8.75572 81.61
-17.4784 55.3759
ITEM: ATOMS id type xu yu zu
 1 1 31.6482 46.1017 19.4406
 2 1 23.2284 44.2641 18.4569
ITEM: TIMESTEP
105
ITEM: NUMBER OF ATOMS
2
ITEM: BOX BOUNDS pp pp pp
-15.6997 71.1164
8.95081 81.2976
-17.2686 55.0781
ITEM: ATOMS id type xu yu zu
 1 1 31.7817 46.0114 19.5249
 2 1 23.635 44.237 18.2846
ITEM: TIMESTEP
106
ITEM: NUMBER OF ATOMS
2
ITEM: BOX BOUNDS pp pp pp
-15.4203 71.0053
8.99041 81.0118
-17.1254 54.896
ITEM: ATOMS id type xu yu zu
 1 1 32.1173 45.4852 19.6467
 2 1 23.4676 44.517 18.1239
ITEM: TIMESTEP
107
ITEM: NUMBER OF ATOMS
2
ITEM: BOX BOUNDS pp pp pp
-15.165 70.5781
9.39829 80.8509
-16.6251 54.8275
ITEM: ATOMS id type xu yu zu
 1 1 32.0371 45.5517 20.2958
 2 1 23.376 44.6975 17.9066
ITEM: TIMESTEP
108
ITEM: NUMBER OF ATOMS
2
ITEM: BOX BOUNDS pp pp pp
-14.2381 69.8584
9.81897 79.8994
-15.8666 54.2138
ITEM: ATOMS id type xu yu zu
 1 1 31.8478 45.2275 20.2623
 2 1 23.7725 44.4909 18.0849
ITEM: TIMESTEP
109
ITEM: NUMBER OF ATOMS
2
ITEM: BOX BOUNDS pp pp pp
-14.1477 70.0586
9.59597 79.7679
-16.0569 54.1149
ITEM: ATOMS id type xu yu zu
 1 1 31.5054 44.8203 20.4639
 2 1 24.4054 44.5436 17.5941
ITEM: TIMESTEP
110
ITEM: NUMBER OF ATOMS
2
ITEM: BOX BOUNDS pp pp pp
-13.6139 69.9356
9.84994 79.4745
-15.5746 54.05
ITEM: ATOMS id type xu yu zu
 1 1 32.1397 44.468 20.8437
 2 1 24.182 44.8564 17.6317
ITEM: TIMESTEP
111
ITEM: NUMBER OF ATOMS
2
ITEM: BOX BOUNDS pp pp pp
-13.5872 69.7991
9.82655 79.3151
-15.6539 53.8347
ITEM: ATOMS id type xu yu zu
 1 1 32.0834 44.8334 20.5811
 2 1 24.1285 44.3083 17.5997
ITEM: TIMESTEP
112
ITEM: NUMBER OF ATOMS
2
ITEM: BOX BOUNDS pp pp pp
-13.1122 69.249
9.7419 78.3762
-15.2061 53.4283
ITEM: ATOMS id type xu yu zu
 1 1 31.9634 44.1349 20.5243
 2 1 24.1734 43.9832 17.6979
ITEM: TIMESTEP
113
ITEM: NUMBER OF ATOMS
2
ITEM: BOX BOUNDS pp pp pp
-13.5565 68.767
9.97248 78.5755
-15.0495 53.5534
ITEM: ATOMS id type xu yu zu
 1 1 31.4197 44.22 20.8973
 2 1 23.7908 44.3279 17.6066
ITEM: TIMESTEP
114
ITEM: NUMBER OF ATOMS
2
ITEM: BOX BOUNDS pp pp pp
-13.5789 68.411
9.96643 78.2914
-15.2173 53.1077
ITEM: ATOMS id type xu yu zu
 1 1 30.8748 43.954 20.488
 2 1 23.9573 44.3038 17.4023
ITEM: TIMESTEP
115
ITEM: NUMBER OF ATOMS
2
ITEM: BOX BOUNDS pp pp pp
-12.7902 68.371
10.0006 77.6349
-14.4675 53.1668
ITEM: ATOMS id type xu yu zu
 1 1 31.6516 43.6568 21.3812
 2 1 23.9293 43.9787 17.3181
ITEM: TIMESTEP
116
ITEM: NUMBER OF ATOMS
2
ITEM: BOX BOUNDS pp pp pp
-13.1383 67.6783
10.091 77.4381
-14.4801 52.867
ITEM: ATOMS id type xu yu zu
 1 1 30.7952 43.6415 20.703
 2 1 23.7448 43.8876 17.6838
ITEM: TIMESTEP
117
ITEM: NUMBER OF ATOMS
2
ITEM: BOX BOUNDS pp pp pp
-13.0481 67.1928
10.6576 77.525
-14.1494 52.718
ITEM: ATOMS id type xu yu zu
 1 1 30.8579 43.7845 21.3524
 2 1 23.2869 44.3982 17.2163
ITEM: TIMESTEP
118
ITEM: NUMBER OF ATOMS
2
ITEM: BOX BOUNDS pp pp pp
-12.4227 67.4805
10.414 77
-13.8092 52.7768
ITEM: ATOMS id type xu yu zu
 1 1 30.7708 43.0914 21.6264
 2 1 24.2869 44.3225 17.3413
ITEM: TIMESTEP
119
ITEM: NUMBER OF ATOMS
2
ITEM: BOX BOUNDS pp pp pp
-12.158 67.3712
10.4669 76.7412
-13.4858 52.7884
ITEM: ATOMS id type xu yu zu
 1 1 31.123 42.9029 21.9072
 2 1 24.0903 44.3052 17.3954
ITEM: TIMESTEP
120
ITEM: NUMBER OF ATOMS
2
ITEM: BOX BOUNDS pp pp pp
-12.3234 66.4501
10.538 76.1826
-13.236 52.4086
ITEM: ATOMS id type xu yu zu
 1 1 30.4189 42.7061 21.8541
 2 1 23.7077 44.0146 17.3185
ITEM: TIMESTEP
121
ITEM: NUMBER OF ATOMS
2
ITEM: BOX BOUNDS pp pp pp
-12.849 65.6842
10.5873 76.0317
-13.3494 52.095
ITEM: ATOMS id type xu yu zu
 1 1 29.8054 42.289 21.4871
 2 1 23.0298 44.3299 17.2584
ITEM: TIMESTEP
122
ITEM: NUMBER OF ATOMS
2
ITEM: BOX BOUNDS pp pp pp
-12.0693 65.8407
10.6073 75.5322
-13.0478 51.8772
ITEM: ATOMS id type xu yu zu
 1 1 30.5926 42.2129 21.7136
 2 1 23.1787 43.9266 17.1158
ITEM: TIMESTEP
123
ITEM: NUMBER OF ATOMS
2
ITEM: BOX BOUNDS pp pp pp
-11.6444 65.8494
10.5675 75.1457
-12.857 51.7212
ITEM: ATOMS id type xu yu zu
 1 1 30.5903 42.0232 21.7103
 2 1 23.6146 43.69 17.1539
ITEM: TIMESTEP
124
ITEM: NUMBER OF ATOMS
2
ITEM: BOX BOUNDS pp pp pp
-11.6005 65.5238
10.492 74.7622
-12.6481 51.6221
ITEM: ATOMS id type xu yu zu
 1 1 30.3169 41.5108 22.0603
 2 1 23.6064 43.7435 16.9137
ITEM: TIMESTEP
125
ITEM: NUMBER OF ATOMS
2
ITEM: BOX BOUNDS pp pp pp
-11.1523 65.8642
10.5073 74.6876
-12.3541 51.8263
ITEM: ATOMS id type xu yu zu
 1 1 30.5125 41.4155 22.027
 2 1 24.1994 43.7794 17.4453
ITEM: TIMESTEP
126
ITEM: NUMBER OF ATOMS
2
ITEM: BOX BOUNDS pp pp pp
-10.9243 65.2731
10.415 73.9129
-11.9858 51.5121
ITEM: ATOMS id type xu yu zu
 1 1 30.3924 40.8377 22.2753
 2 1 23.9563 43.4902 17.251
ITEM: TIMESTEP
127
ITEM: NUMBER OF ATOMS
2
ITEM: BOX BOUNDS pp pp pp
-10.4425 65.1937
10.6153 73.6454
-11.6498 51.3803
ITEM: ATOMS id type xu yu zu
 1 1 30.3656 40.3662 22.0408
 2 1 24.3856 43.8944 17.6898
ITEM: TIMESTEP
128
ITEM: NUMBER OF ATOMS
2
ITEM: BOX BOUNDS pp pp pp
-10.9648 64.5288
10.8566 73.7679
-11.6046 51.3067
ITEM: ATOMS id type xu yu zu
 1 1 29.7784 40.3798 22.2225
 2 1 23.7855 44.2447 17.4796
ITEM: TIMESTEP
129
ITEM: NUMBER OF ATOMS
2
ITEM: BOX BOUNDS pp pp pp
-10.9715 63.9994
11.032 73.5078
-11.2917 51.184
ITEM: ATOMS id type xu yu zu
 1 1 29.4233 40.5089 22.3232
 2 1 23.6046 44.0308 17.5691
ITEM: TIMESTEP
130
ITEM: NUMBER OF ATOMS
2
ITEM: BOX BOUNDS pp pp pp
-10.0276 64.1217
10.7783 72.5694
-10.8944 50.8967
ITEM: ATOMS id type xu yu zu
 1 1 29.6703 40.3205 22.7093
 2 1 24.4238 43.0272 17.293
ITEM: TIMESTEP
131
ITEM: NUMBER OF ATOMS
2
ITEM: BOX BOUNDS pp pp pp
-9.82065 63.7517
10.8077 72.118
-10.6933 50.617
ITEM: ATOMS id type xu yu zu
 1 1 29.5314 39.3821 22.3673
 2 1 24.3996 43.5436 17.5564
ITEM: TIMESTEP
132
ITEM: NUMBER OF ATOMS
2
ITEM: BOX BOUNDS pp pp pp
-9.85575 63.5132
10.8834 72.0243
-10.5147 50.6261
ITEM: ATOMS id type xu yu zu
 1 1 29.5195 39.076 22.4721
 2 1 24.138 43.8317 17.6393
ITEM: TIMESTEP
133
ITEM: NUMBER OF ATOMS
2
ITEM: BOX BOUNDS pp pp pp
-9.33589 63.4253
10.9375 71.5718
-9.89417 50.7401
ITEM: ATOMS id type xu yu zu
 1 1 29.521 39.2521 22.722
 2 1 24.5684 43.2573 18.1239
ITEM: TIMESTEP
134
ITEM: NUMBER OF ATOMS
2
ITEM: BOX BOUNDS pp pp pp
-8.85015 62.7189
10.8051 70.4459
-9.68678 49.9541
ITEM: ATOMS id type xu yu zu
 1 1 29.3444 38.629 22.4736
 2 1 24.5243 42.622 17.7937
ITEM: TIMESTEP
135
ITEM: NUMBER OF ATOMS
2
ITEM: BOX BOUNDS pp pp pp
-8.83043 62.1536
11.0565 70.2099
-9.45346 49.6999
ITEM: ATOMS id type xu yu zu
 1 1 29.1836 38.0016 22.3321
 2 1 24.1396 43.2647 17.9144
ITEM: TIMESTEP
136
ITEM: NUMBER OF ATOMS
2
ITEM: BOX BOUNDS pp pp pp
-8.99781 61.4679
11.076 69.7974
-9.25248 49.4689
ITEM: ATOMS id type xu yu zu
 1 1 28.7039 38.06 22.1459
 2 1 23.7661 42.8134 18.0705
ITEM: TIMESTEP
137
ITEM: NUMBER OF ATOMS
2
ITEM: BOX BOUNDS pp pp pp
-8.48404 61.7226
11.1478 69.6533
-9.22564 49.2799
ITEM: ATOMS id type xu yu zu
 1 1 28.9982 38.148 22.4315
 2 1 24.2404 42.6531 17.6228
ITEM: TIMESTEP
138
ITEM: NUMBER OF ATOMS
2
ITEM: BOX BOUNDS pp pp pp
-8.65595 60.8752
11.3102 69.2528
-8.45556 49.4871
ITEM: ATOMS id type xu yu zu
 1 1 28.3677 37.9481 22.6186
 2 1 23.8516 42.6149 18.413
ITEM: TIMESTEP
139
ITEM: NUMBER OF ATOMS
2
ITEM: BOX BOUNDS pp pp pp
-8.21653 60.7813
11.2553 68.7535
-8.45513 49.0431
ITEM: ATOMS id type xu yu zu
 1 1 29.0257 37.2943 22.5084
 2 1 23.539 42.7145 18.0795
ITEM: TIMESTEP
140
ITEM: NUMBER OF ATOMS
2
ITEM: BOX BOUNDS pp pp pp
-7.92234 60.4724
11.2584 68.254
-8.0555 48.9401
ITEM: ATOMS id type xu yu zu
 1 1 28.328 37.335 22.7688
 2 1 24.2221 42.1774 18.1158
ITEM: TIMESTEP
141
ITEM: NUMBER OF ATOMS
2
ITEM: BOX BOUNDS pp pp pp
-7.56674 59.9397
11.4289 67.6842
-7.7995 48.4558
ITEM: ATOMS id type xu yu zu
 1 1 28.3585 36.4471 22.3779
 2 1 24.0144 42.6659 18.2784
ITEM: TIMESTEP
142
ITEM: NUMBER OF ATOMS
2
ITEM: BOX BOUNDS pp pp pp
-7.52188 59.7137
11.5119 67.5415
-7.55433 48.4753
ITEM: ATOMS id type xu yu zu
 1 1 28.4171 36.5368 22.2696
 2 1 23.7747 42.5167 18.6513
ITEM: TIMESTEP
143
ITEM: NUMBER OF ATOMS
2
ITEM: BOX BOUNDS pp pp pp
-6.90322 59.6789
11.5988 67.0839
-7.20073 48.2844
ITEM: ATOMS id type xu yu zu
 1 1 28.4396 36.2665 22.3881
 2 1 24.3361 42.4161 18.6955
ITEM: TIMESTEP
144
ITEM: NUMBER OF ATOMS
2
ITEM: BOX BOUNDS pp pp pp
-7.07896 59.1756
11.4196 66.6317
-7.4374 47.7747
ITEM: ATOMS id type xu yu zu
 1 1 28.1548 35.667 22.135
 2 1 23.9418 42.3843 18.2023
ITEM: TIMESTEP
145
ITEM: NUMBER OF ATOMS
2
ITEM: BOX BOUNDS pp pp pp
-6.90638 58.3698
11.5271 65.924
-7.21065 47.1862
ITEM: ATOMS id type xu yu zu
 1 1 27.8216 35.5237 21.7958
 2 1 23.6418 41.9274 18.1798
ITEM: TIMESTEP
146
ITEM: NUMBER OF ATOMS
2
ITEM: BOX BOUNDS pp pp pp
-6.63695 57.9517
11.5729 65.3967
-7.09171 46.7321
ITEM: ATOMS id type xu yu zu
 1 1 27.7139 35.1994 21.6392