ITEM: TIMESTEP
0
ITEM: NUMBER OF ATOMS
18
ITEM: BOX BOUNDS pp pp pp
7.92383 67.4463
-12.2521 37.35
-18.0164 31.5857
ITEM: ATOMS id type xu yu zu
 1 1 36.2453 12.5799 6.45944
 2 1 36.9204 11.3168 6.65631
 3 1 38.3361 11.2864 6.93642
 4 1 39.0869 12.5187 7.02178
 5 1 38.4125 13.7813 6.82308
 6 1 36.9966 13.812 6.54283
 7 2 34.7641 12.6357 6.19075
 8 2 40.5603 12.5104 7.33631
 9 3 34.3304 11.6367 6.07746
 10 3 34.5786 13.1985 5.26964
 11 3 34.2643 13.14 7.02406
 12 3 41.1058 13.0544 6.55771
 13 3 40.9617 11.4929 7.39167
 14 3 40.7276 13.0031 8.29968
 15 3 36.3627 10.3757 6.60428
 16 3 38.8323 10.3227 7.09326
 17 3 38.9701 14.7215 6.89346
 18 3 36.4943 14.7752 6.40295
ITEM: TIMESTEP
1
ITEM: NUMBER OF ATOMS
18
ITEM: BOX BOUNDS pp pp pp
8.6524 67.9838
-11.9054 37.5374
-14.809 34.6338
ITEM: ATOMS id type xu yu zu
 1 1 36.9216 12.5055 10.1313
 2 1 37.8592 11.4421 9.85001
 3 1 39.2609 11.7444 9.71706
 4 1 39.7066 13.1163 9.75711
 5 1 38.7704 14.1782 10.0486
 6 1 37.3904 13.8594 10.3148
 7 2 35.4393 12.2956 10.0072
 8 2 41.1445 13.4361 9.46455
 9 3 35.1874 11.2594 9.7577
 10 3 35.0534 12.945 9.21363
 11 3 34.9533 12.5578 10.9527
 12 3 41.1993 14.3557 8.87208
 13 3 41.6355 12.6394 8.89413
 14 3 41.683 13.5863 10.4058
 15 3 37.5113 10.4138 9.70796
 16 3 39.9735 10.9331 9.5358
 17 3 39.1086 15.2182 10.1076
 18 3 36.6919 14.6595 10.5816
ITEM: TIMESTEP
2
ITEM: NUMBER OF ATOMS
18
ITEM: BOX BOUNDS pp pp pp
9.38734 69.1402
-12.8495 36.9445
-16.7642 33.0298
ITEM: ATOMS id type xu yu zu
 1 1 40.2572 11.7137 7.28369
 2 1 40.6156 12.6384 8.33902
 3 1 39.6065 13.0524 9.28755
 4 1 38.2358 12.6365 9.17397
 5 1 37.8795 11.8137 8.04808
 6 1 38.8808 11.2955 7.13958
 7 2 41.1899 11.3858 6.15028
 8 2 37.3002 12.9201 10.3263
 9 3 41.1312 10.3242 5.88801
 10 3 42.2242 11.6199 6.42146
 11 3 40.9098 11.9856 5.27679
 12 3 37.1993 12.0577 10.9888
 13 3 36.3033 13.1833 9.95897
 14 3 37.6724 13.7708 10.91
 15 3 41.6081 13.1011 8.37856
 16 3 39.9095 13.7229 10.0973
 17 3 36.8436 11.4795 7.94157
 18 3 38.5807 10.6297 6.32117
ITEM: TIMESTEP
3
ITEM: NUMBER OF ATOMS
18
ITEM: BOX BOUNDS pp pp pp
8.27531 70.9271
-16.0397 36.1701
-21.0353 31.1745
ITEM: ATOMS id type xu yu zu
 1 1 38.1998 10.1039 5.48721
 2 1 38.8215 8.92815 4.97759
 3 1 40.1752 8.87808 4.58393
 4 1 40.9984 10.0249 4.86215
 5 1 40.4291 11.2347 5.42273
 6 1 39.0209 11.2627 5.75103
 7 2 36.7137 9.99558 5.69814
 8 2 42.4615 10.1447 4.61317
 9 3 36.3883 10.8631 6.28372
 10 3 36.3853 9.07517 6.20614
 11 3 36.1999 10.0761 4.73602
 12 3 43.0025 10.4484 5.5142
 13 3 42.5683 10.9251 3.8554
 14 3 42.8865 9.22298 4.21496
 15 3 38.2742 7.98973 4.85046
 16 3 40.5734 7.97652 4.10674
 17 3 41.0286 12.1368 5.60703
 18 3 38.6081 12.1538 6.23271
ITEM: TIMESTEP
4
ITEM: NUMBER OF ATOMS
18
ITEM: BOX BOUNDS pp pp pp
7.60882 73.2868
-19.7488 34.9829
-26.0635 28.6682
ITEM: ATOMS id type xu yu zu
 1 1 40.5773 8.73451 2.24024
 2 1 39.5775 8.88946 1.21016
 3 1 39.3763 7.82859 0.244937
 4 1 40.0587 6.57332 0.357203
 5 1 41.0408 6.42204 1.37474
 6 1 41.3915 7.54377 2.20535
 7 2 40.8653 9.86713 3.21427
 8 2 39.6821 5.45198 -0.566958
 9 3 40.8241 10.7743 2.60834
 10 3 41.8792 9.82739 3.62865
 11 3 40.1341 9.90144 4.03705
 12 3 39.7898 4.45975 -0.124841
 13 3 40.339 5.53106 -1.4324
 14 3 38.6431 5.54721 -0.895989
 15 3 38.9332 9.77562 1.16627
 16 3 38.5808 7.94024 -0.497591
 17 3 41.5464 5.47283 1.57694
 18 3 42.3149 7.43294 2.78479
ITEM: TIMESTEP
5
ITEM: NUMBER OF ATOMS
18
ITEM: BOX BOUNDS pp pp pp
8.01929 75.5169
-21.4664 34.7817
-3.09124 53.1568
ITEM: ATOMS id type xu yu zu
 1 1 43.1383 6.30816 -2.86023
 2 1 42.6918 7.65412 -2.68236
 3 1 41.3262 7.96298 -3.00515
 4 1 40.4104 6.94382 52.7786
 5 1 40.9083 5.59983 52.5563
 6 1 42.2976 5.29452 52.7927
 7 2 44.4876 5.89221 -2.38942
 8 2 38.9647 7.24852 52.4929
 9 3 44.3764 5.24232 -1.52789
 10 3 45.1147 6.74217 -2.1278
 11 3 44.9869 5.32624 53.0707
 12 3 38.6853 6.88915 51.4968
 13 3 38.6955 8.303 52.6294
 14 3 38.4215 6.67051 -3.00141
 15 3 43.3716 8.45942 -2.38568
 16 3 40.9979 9.00267 -2.87034
 17 3 40.1975 4.80437 52.302
 18 3 42.6963 4.31265 52.5113
ITEM: TIMESTEP
6
ITEM: NUMBER OF ATOMS
18
ITEM: BOX BOUNDS pp pp pp
8.05639 77.9442
-24.0727 34.1671
21.8466 80.0864
ITEM: ATOMS id type xu yu zu
 1 1 43.3801 3.72797 50.3858
 2 1 43.8521 4.08369 51.7266
 3 1 43.7724 5.43288 52.2835
 4 1 43.0669 6.47269 51.5331
 5 1 42.6209 6.1112 50.1846
 6 1 42.7078 4.76953 49.6459
 7 2 43.4779 2.28874 49.8527
 8 2 42.6623 7.79252 52.1141
 9 3 42.611 2.09382 49.2184
 10 3 43.4713 1.54785 50.6613
 11 3 44.4062 2.17448 49.289
 12 3 42.7642 7.93428 53.198
 13 3 41.5943 7.93632 51.8953
 14 3 43.2534 8.5465 51.5756
 15 3 44.2909 3.26764 52.3123
 16 3 44.2159 5.60672 53.2769
 17 3 42.1413 6.88596 49.5749
 18 3 42.3122 4.51531 48.6561
ITEM: TIMESTEP
7
ITEM: NUMBER OF ATOMS
18
ITEM: BOX BOUNDS pp pp pp
8.50296 80.2231
-26.4475 33.3193
18.7245 78.4913
ITEM: ATOMS id type xu yu zu
 1 1 43.3351 3.16983 47.8759
 2 1 44.6666 2.6272 47.5834
 3 1 45.7974 3.12948 48.3465
 4 1 45.6529 4.21987 49.3058
 5 1 44.303 4.6585 49.6211
 6 1 43.142 4.16937 48.9215
 7 2 42.1018 2.56427 47.2448
 8 2 46.8392 4.6438 50.1624
 9 3 42.2505 1.48195 47.3287
 10 3 42.0615 2.84804 46.1889
 11 3 41.1776 2.83035 47.7707
 12 3 47.5485 5.20459 49.5691
 13 3 47.3386 3.72691 50.4522
 14 3 46.5341 5.22037 51.0269
 15 3 44.7515 1.78479 46.8735
 16 3 46.7756 2.64167 48.2092
 17 3 44.1478 5.38986 50.4314
 18 3 42.1502 4.52378 49.2348
ITEM: TIMESTEP
8
ITEM: NUMBER OF ATOMS
18
ITEM: BOX BOUNDS pp pp pp
9.01003 82.6176
-28.3276 33.0121
15.7017 77.0414
ITEM: ATOMS id type xu yu zu
 1 1 44.834 3.20033 45.9668
 2 1 44.8472 1.9717 45.19
 3 1 45.7957 0.94855 45.5612
 4 1 46.73 1.13723 46.6796
 5 1 46.602 2.29827 47.5436
 6 1 45.6717 3.34773 47.1413
 7 2 43.912 4.36057 45.6351
 8 2 47.8436 0.126489 46.9336
 9 3 42.898 4.13858 45.98
 10 3 43.9451 4.52244 44.5572
 11 3 44.2116 5.3006 46.117
 12 3 48.7297 0.607993 47.3982
 13 3 48.0976 -0.36892 45.9726
 14 3 47.4398 -0.616107 47.6594
 15 3 44.1941 1.84104 44.3205
 16 3 45.8627 0.0434723 44.9305
 17 3 47.2613 2.37157 48.4226
 18 3 45.5766 4.18446 47.8467
ITEM: TIMESTEP
9
ITEM: NUMBER OF ATOMS
18
ITEM: BOX BOUNDS pp pp pp
9.39631 84.8318
-30.801 32.0619
12.6269 75.4897
ITEM: ATOMS id type xu yu zu
 1 1 47.1306 1.99546 44.686
 2 1 45.8961 1.2445 44.544
 3 1 45.8638 0.00125742 43.8
 4 1 47.0596 -0.58365 43.2991
 5 1 48.2808 0.15238 43.4504
 6 1 48.3067 1.41272 44.1011
 7 2 47.1402 3.42389 45.1591
 8 2 47.0475 -1.9183 42.5973
 9 3 46.9872 3.4479 46.2382
 10 3 46.3319 3.97777 44.6682
 11 3 48.0991 3.89888 44.8688
 12 3 46.2103 -2.00627 41.8784
 13 3 46.9195 -2.71681 43.3568
 14 3 48.0184 -2.06141 42.104
 15 3 44.9948 1.59106 45.0505
 16 3 44.9429 -0.559303 43.6919
 17 3 49.1821 -0.157214 42.9287
 18 3 49.2852 1.88262 44.1463
ITEM: TIMESTEP
10
ITEM: NUMBER OF ATOMS
18
ITEM: BOX BOUNDS pp pp pp
10.1056 86.6709
-32.4579 31.3466
9.4944 73.2989
ITEM: ATOMS id type xu yu zu
 1 1 49.2521 -0.150514 42.3315
 2 1 48.2217 0.779436 41.8986
 3 1 47.2993 0.463284 40.8659
 4 1 47.3247 -0.848676 40.3244
 5 1 48.2612 -1.84422 40.8388
 6 1 49.3106 -1.453 41.7379
 7 2 50.1843 0.175654 43.4206
 8 2 46.2065 -1.28888 39.4071
 9 3 50.0688 1.1784 43.812
 10 3 51.2061 -0.0130157 43.118
 11 3 49.9647 -0.506671 44.2311
 12 3 45.6238 -2.04268 39.9251
 13 3 46.64 -1.81026 38.5622
 14 3 45.5704 -0.492315 39.0366
 15 3 48.14 1.76311 42.3581
 16 3 46.6027 1.2507 40.6022
 17 3 48.1717 -2.87446 40.4997
 18 3 49.9617 -2.18686 42.1757
ITEM: TIMESTEP
11
ITEM: NUMBER OF ATOMS
18
ITEM: BOX BOUNDS pp pp pp
10.4342 88.6084
-34.5094 30.6358
6.59288 71.738
ITEM: ATOMS id type xu yu zu
 1 1 50.749 -2.72195 38.8824
 2 1 50.7985 -1.28519 38.9687
 3 1 49.6013 -0.515145 38.8304
 4 1 48.2932 -1.14853 38.7308
 5 1 48.2468 -2.61265 38.7249
 6 1 49.4709 -3.37584 38.682
 7 2 51.9563 -3.53907 39.3522
 8 2 47.0896 -0.238277 38.7314
 9 3 52.0622 -4.39214 38.6393
 10 3 51.7972 -3.86257 40.3892
 11 3 52.9075 -2.98604 39.2925
 12 3 46.1352 -0.80491 38.6557
 13 3 47.1439 0.516168 37.9417
 14 3 47.0717 0.264709 39.7094
 15 3 51.7633 -0.815333 39.1602
 16 3 49.7191 0.583464 38.8923
 17 3 47.3121 -3.12254 38.5695
 18 3 49.353 -4.45706 38.5874
ITEM: TIMESTEP
12
ITEM: NUMBER OF ATOMS
18
ITEM: BOX BOUNDS pp pp pp
10.7767 91.2788
-37.0327 30.0523
3.02378 70.1088
ITEM: ATOMS id type xu yu zu
 1 1 51.2218 -4.76793 35.7994
 2 1 51.9724 -4.55951 37.0322
 3 1 51.7148 -3.33342 37.719
 4 1 50.7509 -2.35948 37.2259
 5 1 50.1079 -2.53526 35.931
 6 1 50.3139 -3.76432 35.236
 7 2 51.3376 -6.13365 35.1325
 8 2 50.4459 -1.12969 38.0247
 9 3 51.356 -6.07116 34.0542
 10 3 50.4288 -6.66076 35.3923
 11 3 52.2104 -6.67993 35.4763
 12 3 51.0422 -0.300454 37.6145
 13 3 50.7492 -1.30928 39.0784
 14 3 49.3761 -0.847197 38.0484
 15 3 52.6794 -5.29254 37.4445
 16 3 52.2867 -3.21704 38.6414
 17 3 49.4981 -1.7515 35.4555
 18 3 49.7685 -3.94219 34.2873
ITEM: TIMESTEP
13
ITEM: NUMBER OF ATOMS
18
ITEM: BOX BOUNDS pp pp pp
11.3268 93.2614
-39.0448 29.2341
-0.0595779 68.2193
ITEM: ATOMS id type xu yu zu
 1 1 50.9919 -5.43468 33.3874
 2 1 52.0747 -6.34694 33.8562
 3 1 53.2268 -5.8167 34.5605
 4 1 53.4058 -4.35206 34.6703
 5 1 52.3358 -3.47772 34.1701
 6 1 51.1265 -4.03101 33.6317
 7 2 49.858 -5.99164 32.5195
 8 2 54.5375 -3.78288 35.5309
 9 3 50.3051 -6.52734 31.6586
 10 3 49.2175 -5.18242 32.1443
 11 3 49.2219 -6.67752 33.063
 12 3 55.0042 -2.97266 34.9945
 13 3 55.3707 -4.47111 35.7109
 14 3 54.1834 -3.41558 36.5011
 15 3 52.068 -7.4286 33.6746
 16 3 53.9265 -6.5633 34.9527
 17 3 52.3826 -2.38217 34.3388
 18 3 50.2974 -3.36874 33.3335
ITEM: TIMESTEP
14
ITEM: NUMBER OF ATOMS
18
ITEM: BOX BOUNDS pp pp pp
11.5144 95.6817
-41.5701 28.5693
-3.3921 66.7473
ITEM: ATOMS id type xu yu zu
 1 1 52.4786 -5.68596 31.3891
 2 1 52.9311 -6.66925 30.399
 3 1 54.0288 -7.55389 30.6658
 4 1 54.7404 -7.36508 31.8925
 5 1 54.3275 -6.37764 32.93
 6 1 53.1232 -5.64477 32.7147
 7 2 51.3049 -4.79389 31.0968
 8 2 56.0519 -8.10274 32.1737
 9 3 51.2837 -3.83499 31.6639
 10 3 50.4321 -5.37771 31.4124
 11 3 51.2283 -4.57907 30.0225
 12 3 56.4593 -7.85437 33.1537
 13 3 56.764 -7.86806 31.3951
 14 3 55.8927 -9.16584 32.1412
 15 3 52.3766 -6.80081 29.4649
 16 3 54.3634 -8.29518 29.9403
 17 3 54.8421 -6.23459 33.8903
 18 3 52.8293 -4.97149 33.523
ITEM: TIMESTEP
15
ITEM: NUMBER OF ATOMS
18
ITEM: BOX BOUNDS pp pp pp
11.8628 98.3529
-11.2506 60.8245
-6.85767 65.2174
ITEM: ATOMS id type xu yu zu
 1 1 55.084 -6.81929 29.7331
 2 1 54.0049 -7.26557 28.8516
 3 1 53.992 -8.61638 28.4293
 4 1 55.0644 -9.54551 28.7665
 5 1 56.1842 -9.10309 29.6147
 6 1 56.129 -7.74774 30.1462
 7 2 55.2912 -5.36636 30.1441
 8 2 54.9685 -11.0136 28.296
 9 3 54.7139 -4.67729 29.5161
 10 3 56.3664 -5.17344 30.0732
 11 3 54.9318 -5.25238 31.1459
 12 3 55.9084 60.5085 28.4835
 13 3 54.8027 -10.9878 27.2139
 14 3 54.1135 60.5875 28.7633
 15 3 53.2419 -6.58559 28.4744
 16 3 53.1982 -8.9476 27.7602
 17 3 57.0174 -9.73973 29.9202
 18 3 56.9675 -7.45947 30.7898
ITEM: TIMESTEP
16
ITEM: NUMBER OF ATOMS
18
ITEM: BOX BOUNDS pp pp pp
12.3891 99.8628
-45.8167 27.0781
-9.73414 63.1606
ITEM: ATOMS id type xu yu zu
 1 1 57.2985 -8.96104 27.6198
 2 1 55.9713 -8.37527 27.8595
 3 1 54.8484 -8.78895 27.0154
 4 1 55.0435 -9.7542 25.9204
 5 1 56.4186 -10.2388 25.6555
 6 1 57.4619 -9.90434 26.5373
 7 2 58.4777 -8.43292 28.4482
 8 2 53.8396 -10.23 25.0882
 9 3 58.2701 -7.43041 28.8856
 10 3 59.3474 -8.35285 27.7767
 11 3 58.6906 -9.11415 29.2628
 12 3 53.7903 -9.62831 24.1637
 13 3 52.9045 -10.1554 25.6509
 14 3 53.994 -11.3082 24.8756
 15 3 55.7892 -7.62968 28.6305
 16 3 53.8867 -8.36427 27.3405
 17 3 56.6659 -10.8579 24.7932
 18 3 58.4673 -10.2866 26.3877
ITEM: TIMESTEP
17
ITEM: NUMBER OF ATOMS
18
ITEM: BOX BOUNDS pp pp pp
12.9176 101.76
-12.1912 61.844
-12.7478 61.2873
ITEM: ATOMS id type xu yu zu
 1 1 58.4272 -11.6021 24.5634
 2 1 58.3826 -10.2735 25.2045
 3 1 57.3923 -9.33129 24.8826
 4 1 56.3229 -9.6801 23.9734
 5 1 56.3771 -10.9548 23.267
 6 1 57.4069 -11.9613 23.563
 7 2 59.5009 61.4452 24.9946
 8 2 55.1557 -8.75311 23.727
 9 3 60.4412 61.6141 24.49
 10 3 59.1975 60.4022 24.7541
 11 3 59.7295 61.5662 26.062
 12 3 55.4622 -8.17778 22.8575
 13 3 55.0512 -8.05763 24.53
 14 3 54.236 -9.30172 23.5284
 15 3 59.1706 -9.97922 25.9037
 16 3 57.4248 -8.34879 25.3651
 17 3 55.6716 -11.2135 22.4775
 18 3 57.3574 61.0667 23.1205
ITEM: TIMESTEP
18
ITEM: NUMBER OF ATOMS
18
ITEM: BOX BOUNDS pp pp pp
13.5679 103.331
-12.4426 62.3597
-15.7206 59.0817
ITEM: ATOMS id type xu yu zu
 1 1 58.4935 61.6481 21.1427
 2 1 59.7279 62.3804 21.4672
 3 1 59.6592 -11.1013 22.0735
 4 1 58.3738 -10.4736 22.3468
 5 1 57.1583 -11.1937 21.9955
 6 1 57.2149 -12.4634 21.3333
 7 2 58.6041 60.2678 20.4949
 8 2 58.2744 -9.10281 23.0064
 9 3 59.622 59.885 20.5696
 10 3 58.2405 60.382 19.4652
 11 3 57.9143 59.5605 21.0219
 12 3 59.246 -8.74224 23.3659
 13 3 57.6548 -9.17344 23.8959
 14 3 57.7926 -8.35495 22.3543
 15 3 60.7297 61.9625 21.331
 16 3 60.5481 -10.5793 22.4115
 17 3 56.1689 -10.7456 22.1903
 18 3 56.2255 61.9601 21.0884
ITEM: TIMESTEP
19
ITEM: NUMBER OF ATOMS
18
ITEM: BOX BOUNDS pp pp pp
13.9748 105.63
-13.1269 63.2525
-19.0946 57.2848
ITEM: ATOMS id type xu yu zu
 1 1 58.7815 62.5637 18.1808
 2 1 59.9355 61.7327 18.4099
 3 1 60.9465 62.1899 19.2981
 4 1 60.7408 -13.0059 20.1288
 5 1 59.5728 -12.1506 19.9597
 6 1 58.5825 -12.5943 18.9812
 7 2 57.8724 62.2471 17.0401
 8 2 61.815 -12.5214 21.0986
 9 3 56.7979 62.1964 17.3774
 10 3 58.1502 61.2952 16.5699
 11 3 57.9944 63.0004 16.2572
 12 3 61.8849 63.1315 21.9329
 13 3 61.5882 -11.5552 21.5505
 14 3 62.8069 -12.5182 20.6313
 15 3 60.1756 60.7995 17.902
 16 3 61.8741 61.6101 19.2507
 17 3 59.3892 -11.2974 20.6384
 18 3 57.6716 -11.9762 18.8479
ITEM: TIMESTEP
20
ITEM: NUMBER OF ATOMS
18
ITEM: BOX BOUNDS pp pp pp
14.2945 108.208
-14.1292 64.1319
-22.6797 55.5814
ITEM: ATOMS id type xu yu zu
 1 1 60.0913 63.9977 16.2143
 2 1 59.9899 62.5498 16.0764
 3 1 61.1708 61.7164 16.3285
 4 1 62.4319 62.3111 16.788
 5 1 62.4089 63.7306 17.0935
 6 1 61.3215 -13.7063 16.6765
 7 2 58.9833 -13.3573 15.7273
 8 2 63.6099 61.4013 17.0844
 9 3 58.8722 -12.4774 16.3881
 10 3 58.0072 -13.8859 15.774
 11 3 59.1394 -13.0187 14.7105
 12 3 63.6657 61.3873 18.1912
 13 3 64.4951 61.8742 16.6574
 14 3 63.5332 60.3788 16.6864
 15 3 58.9929 62.1025 15.8755
 16 3 61.0577 60.6306 16.13
 17 3 63.2475 -13.9949 17.528
 18 3 61.4808 -12.6262 16.6072
ITEM: TIMESTEP
21
ITEM: NUMBER OF ATOMS
18
ITEM: BOX BOUNDS pp pp pp
14.8576 109.754
-14.3288 64.7513
-25.651 53.4291
ITEM: ATOMS id type xu yu zu
 1 1 62.0176 64.0379 14.6229
 2 1 60.9842 63.2526 14.0298
 3 1 61.2071 62.0573 13.2889
 4 1 62.549 61.503 13.2326
 5 1 63.6262 62.2465 13.8782
 6 1 63.3723 63.5093 14.5726
 7 2 61.7527 -13.7074 15.2997
 8 2 62.8713 60.1616 12.6268
 9 3 62.4847 -13.5053 16.0829
 10 3 60.7571 -13.6678 15.7318
 11 3 61.8601 -12.9201 14.5152
 12 3 63.4076 60.3756 11.6952
 13 3 62.0083 59.5495 12.449
 14 3 63.4866 59.5775 13.3184
 15 3 59.9543 63.632 14.1208
 16 3 60.3332 61.6345 12.7616
 17 3 64.657 61.8605 13.8921
 18 3 64.1833 64.13 14.9482
ITEM: TIMESTEP
22
ITEM: NUMBER OF ATOMS
18
ITEM: BOX BOUNDS pp pp pp
15.3941 110.915
22.4735 102.074
-28.4536 51.147
ITEM: ATOMS id type xu yu zu
 1 1 64.1043 62.946 12.4217
 2 1 63.1433 63.6843 11.6538
 3 1 62.2924 63.033 10.6642
 4 1 62.342 61.5882 10.4859
 5 1 63.35 60.859 11.1764
 6 1 64.2278 61.5211 12.1038
 7 2 64.9506 63.4747 13.5207
 8 2 61.3836 60.9402 9.51974
 9 3 65.9196 63.8618 13.142
 10 3 65.1745 62.6608 14.2147
 11 3 64.4218 64.229 14.0933
 12 3 60.3893 61.3718 9.5745
 13 3 61.2741 59.874 9.71595
 14 3 61.7101 61.1054 8.47864
 15 3 63.092 64.7659 11.8161
 16 3 61.606 63.6245 10.0666
 17 3 63.4945 59.7818 11.0136
 18 3 64.9995 60.9177 12.6145
ITEM: TIMESTEP
23
ITEM: NUMBER OF ATOMS
18
ITEM: BOX BOUNDS pp pp pp
16.0046 112.697
21.6252 102.202
-31.3736 49.203
ITEM: ATOMS id type xu yu zu
 1 1 65.6246 61.3736 9.23407
 2 1 65.4399 62.7882 9.3028
 3 1 64.1553 63.3446 8.95028
 4 1 63.0518 62.5096 8.53522
 5 1 63.2363 61.1051 8.49107
 6 1 64.4999 60.5277 8.84335
 7 2 66.9159 60.7259 9.51165
 8 2 61.7508 63.2232 8.17779
 9 3 67.6488 61.2276 8.91208
 10 3 66.9373 59.6507 9.25824
 11 3 67.1007 60.9263 10.5932
 12 3 61.3637 62.8397 7.23625
 13 3 61.8721 64.3208 8.13121
 14 3 61.0523 62.9972 9.00337
 15 3 66.2817 63.4391 9.51359
 16 3 63.9639 64.3875 9.13955
 17 3 62.4018 60.462 8.23218
 18 3 64.6257 59.4395 8.7863
ITEM: TIMESTEP
24
ITEM: NUMBER OF ATOMS
18
ITEM: BOX BOUNDS pp pp pp
16.532 114.658
20.8333 102.605
-34.6616 47.11
ITEM: ATOMS id type xu yu zu
 1 1 65.9664 60.5002 5.69831
 2 1 66.5744 61.0142 6.85104
 3 1 66.1698 62.2694 7.46188
 4 1 65.0954 63.0219 6.86036
 5 1 64.4333 62.4509 5.73846
 6 1 64.7834 61.1493 5.19827
 7 2 66.4891 59.2123 5.11969
 8 2 64.7384 64.3962 7.35059
 9 3 66.0897 58.4244 5.78834
 10 3 67.5749 59.2343 5.08396
 11 3 66.1094 59.0382 4.09926
 12 3 63.8971 64.3249 8.05284
 13 3 64.4305 65.0139 6.49493
 14 3 65.559 64.8942 7.8395
 15 3 67.4656 60.5674 7.23815
 16 3 66.6742 62.6586 8.3491
 17 3 63.6151 63.002 5.30114
 18 3 64.2306 60.6763 4.39143
ITEM: TIMESTEP
25
ITEM: NUMBER OF ATOMS
18
ITEM: BOX BOUNDS pp pp pp
17.1153 115.826
20.1057 102.365
-37.248 45.0112
ITEM: ATOMS id type xu yu zu
 1 1 65.5657 60.4035 3.01288
 2 1 66.5795 59.8419 3.83678
 3 1 67.3952 60.6255 4.6959
 4 1 67.316 62.0749 4.65452
 5 1 66.3003 62.6536 3.84073
 6 1 65.3997 61.8537 3.00268
 7 2 64.6165 59.6073 2.14126
 8 2 68.2681 62.8386 5.51372
 9 3 63.7034 59.4009 2.63605
 10 3 65.1044 58.649 1.87145
 11 3 64.4056 60.1609 1.21017
 12 3 69.2382 62.334 5.4809
 13 3 67.943 62.9114 6.55306
 14 3 68.3534 63.8215 5.0696
 15 3 66.7375 58.7636 3.81054
 16 3 68.0793 60.1647 5.39543
 17 3 66.2371 63.7385 3.79138
 18 3 64.6522 62.3264 2.38137
ITEM: TIMESTEP
26
ITEM: NUMBER OF ATOMS
18
ITEM: BOX BOUNDS pp pp pp
17.5858 117.673
19.3108 102.717
-40.4501 42.9559
ITEM: ATOMS id type xu yu zu
 1 1 66.2695 61.3983 0.837471
 2 1 66.8682 60.2778 0.213011
 3 1 68.2029 59.8323 0.596344
 4 1 68.9595 60.6188 1.56494
 5 1 68.4807 61.863 2.01908
 6 1 67.1118 62.2266 1.71999
 7 2 64.8244 61.7291 0.501095
 8 2 70.3058 60.1473 2.08197
 9 3 64.5241 61.3767 -0.499025
 10 3 64.7046 62.8049 0.480661
 11 3 64.1705 61.2758 1.25892
 12 3 71.0882 60.3719 1.35617
 13 3 70.3133 59.0834 2.28865
 14 3 70.5849 60.6669 3.01687
 15 3 66.2663 59.7202 -0.511036
 16 3 68.6093 58.8987 0.170641
 17 3 69.0557 62.4866 2.71002
 18 3 66.6764 63.1288 2.14778
ITEM: TIMESTEP
27
ITEM: NUMBER OF ATOMS
18
ITEM: BOX BOUNDS pp pp pp
17.8687 119.492
18.5828 103.269
-43.8345 40.8518
ITEM: ATOMS id type xu yu zu
 1 1 68.2938 62.2836 -1.25005
 2 1 67.9831 61.5753 -2.48681
 3 1 68.5419 60.2669 -2.74612
 4 1 69.5092 59.6632 -1.82126
 5 1 69.8586 60.3601 -0.605503
 6 1 69.2029 61.6211 -0.285473
 7 2 67.54 63.5365 -0.837034
 8 2 70.0882 58.2702 -2.12918
 9 3 68.2166 64.2718 -0.341282
 10 3 66.687 63.2669 -0.158443
 11 3 67.1378 64.0274 -1.69923
 12 3 70.674 58.2478 -3.06285
 13 3 69.24 57.5801 -2.26281
 14 3 70.6367 57.8587 -1.26199
 15 3 67.293 62.0421 -3.19377
 16 3 68.3165 59.7528 -3.70909
 17 3 70.4897 59.8561 0.144056
 18 3 69.3 62.0847 0.726442
ITEM: TIMESTEP
28
ITEM: NUMBER OF ATOMS
18
ITEM: BOX BOUNDS pp pp pp
18.5588 121.251
18.393 103.97
-47.1128 38.4637
ITEM: ATOMS id type xu yu zu
 1 1 70.6014 62.2928 -3.3795
 2 1 69.3334 62.5375 -4.04751
 3 1 68.6405 61.4686 -4.75831
 4 1 69.269 60.138 -4.77508
 5 1 70.5193 59.8986 -4.03929
 6 1 71.2245 60.9803 -3.34227
 7 2 71.1652 63.447 -2.58158
 8 2 68.6497 59.0509 -5.63966
 9 3 71.4492 64.2453 -3.24677
 10 3 72.0147 63.1969 -1.98126
 11 3 70.4077 63.8885 -1.94207
 12 3 67.5917 58.8326 -5.3831
 13 3 69.2403 58.1172 -5.50436
 14 3 68.7109 59.2913 -6.70706
 15 3 68.8903 63.5558 -3.95201
 16 3 67.7392 61.7028 -5.34262
 17 3 70.9382 58.8569 -4.06086
 18 3 72.2179 60.8395 -2.83669
ITEM: TIMESTEP
29
ITEM: NUMBER OF ATOMS
18
ITEM: BOX BOUNDS pp pp pp
20.5939 123.949
16.9713 103.101
-50.2293 35.9001
ITEM: ATOMS id type xu yu zu
 1 1 72.9521 58.7665 -6.78555
 2 1 72.8751 59.8794 -5.84579
 3 1 72.0565 61.0664 -6.13079
 4 1 71.455 61.1791 -7.46063
 5 1 71.5629 60.0938 -8.40004
 6 1 72.2131 58.8533 -8.04993
 7 2 73.923 57.607 -6.45929
 8 2 70.6083 62.4177 -7.81092
 9 3 74.9581 58.0149 -6.52113
 10 3 73.9032 56.7625 -7.18846
 11 3 73.7465 57.2867 -5.45071
 12 3 71.0942 63.3096 -7.3981
 13 3 69.5851 62.3232 -7.40637
 14 3 70.6067 62.5701 -8.89925
 15 3 73.4939 59.781 -4.92851
 16 3 72.0273 61.9281 -5.43659
 17 3 71.1121 60.2284 -9.40069
 18 3 72.2721 58.0239 -8.7524
ITEM: TIMESTEP
30
ITEM: NUMBER OF ATOMS
18
ITEM: BOX BOUNDS pp pp pp
22.6232 126.162
15.5627 101.845
-53.0577 33.2248
ITEM: ATOMS id type xu yu zu
 1 1 73.5813 57.9732 -11.0354
 2 1 74.9438 57.5941 -10.9642
 3 1 75.7434 58.1182 -9.88627
 4 1 75.2114 59.0294 -8.8726
 5 1 73.7964 59.3232 -8.85534
 6 1 73.0156 58.8711 -10.0002
 7 2 72.6581 57.7864 -12.2411
 8 2 76.1564 59.559 -7.79683
 9 3 72.6294 58.6559 -12.8824
 10 3 71.6365 57.6642 -11.8638
 11 3 72.8636 56.8684 -12.8175
 12 3 75.8116 60.5394 -7.42219
 13 3 77.1488 59.6956 -8.21349
 14 3 76.246 58.8586 -6.95057
 15 3 75.3663 56.9331 -11.7192
 16 3 76.8089 57.8629 -9.82259
 17 3 73.4163 59.9189 -8.04662
 18 3 71.97 59.1708 -10.0772
ITEM: TIMESTEP
31
ITEM: NUMBER OF ATOMS
18
ITEM: BOX BOUNDS pp pp pp
24.6468 128.938
13.7804 100.689
-56.481 30.4279
ITEM: ATOMS id type xu yu zu
 1 1 76.2607 58.5761 -12.6831
 2 1 75.3573 57.4962 -12.9536
 3 1 75.8876 56.1786 -13.2746
 4 1 77.3209 55.9788 -13.2077
 5 1 78.2099 57.0578 -12.9753
 6 1 77.6784 58.3706 -12.6806
 7 2 75.6947 59.9694 -12.4061
 8 2 77.9622 54.6376 -13.5977
 9 3 74.703 60.0934 -12.9139
 10 3 76.3637 60.7186 -12.8042
 11 3 75.5198 60.1312 -11.3526
 12 3 78.9953 54.5607 -13.206
 13 3 77.9843 54.5676 -14.7005
 14 3 77.4262 53.7511 -13.2345
 15 3 74.2935 57.6557 -12.8597
 16 3 75.2306 55.3224 -13.4611
 17 3 79.2907 56.9596 -13.1279
 18 3 78.3882 59.1748 -12.4914
ITEM: TIMESTEP
32
ITEM: NUMBER OF ATOMS
18
ITEM: BOX BOUNDS pp pp pp
26.4971 131.648
12.2545 99.8801
-59.6954 27.9301
ITEM: ATOMS id type xu yu zu
 1 1 80.3706 55.893 -15.0903
 2 1 80.0554 57.1735 -15.7123
 3 1 78.9914 57.3743 -16.6524
 4 1 78.2118 56.2212 -17.0272
 5 1 78.5086 54.947 -16.4278
 6 1 79.6295 54.7352 -15.5391
 7 2 81.3032 55.7444 -13.8945
 8 2 76.9955 56.4335 -17.9197
 9 3 81.9552 54.8939 -13.915
 10 3 80.6753 55.6628 -12.9973
 11 3 81.9308 56.6276 -13.8477
 12 3 76.1896 56.8309 -17.3308
 13 3 76.6742 55.4735 -18.3228
 14 3 77.1276 57.0962 -18.768
 15 3 80.6823 58.0071 -15.3741
 16 3 78.7673 58.3531 -17.0454
 17 3 77.9037 54.0899 -16.74
 18 3 79.8755 53.7815 -15.0499
ITEM: TIMESTEP
33
ITEM: NUMBER OF ATOMS
18
ITEM: BOX BOUNDS pp pp pp
-23.4146 83.1731
10.5571 99.3801
-19.3664 69.4567
ITEM: ATOMS id type xu yu zu
 1 1 82.0969 53.8685 68.7035
 2 1 82.9256 53.9268 -18.9761
 3 1 82.762 55.0708 -18.1224
 4 1 81.9164 56.1856 -18.5136
 5 1 81.1819 56.1241 69.0663
 6 1 81.2679 54.9511 68.2471
 7 2 81.9869 52.5797 67.8812
 8 2 81.8285 57.355 -17.5595
 9 3 82.3909 51.766 68.493
 10 3 82.5691 52.6982 67.0059
 11 3 80.9706 52.331 67.5932
 12 3 81.1879 58.1712 -17.8945
 13 3 82.8216 57.7501 -17.3596
 14 3 81.3989 57.0021 -16.6259
 15 3 -22.9288 53.1451 -18.8264
 16 3 -23.1671 55.1579 -17.2149
 17 3 80.5759 56.9844 68.6997
 18 3 80.6666 54.8235 67.3305
ITEM: TIMESTEP
34
ITEM: NUMBER OF ATOMS
18
ITEM: BOX BOUNDS pp pp pp
-23.666 83.9962
8.8988 98.6173
22.2442 111.963
ITEM: ATOMS id type xu yu zu
 1 1 83.4484 54.4675 66.9517
 2 1 83.6093 53.146 66.4492
 3 1 -22.8397 52.4483 66.7698
 4 1 -21.767 53.0937 67.4738
 5 1 -21.8705 54.4522 67.8973
 6 1 -23.1447 55.1113 67.6982
 7 2 82.1385 55.1426 66.5082
 8 2 -20.545 52.2618 67.863
 9 3 81.2734 54.4809 66.489
 10 3 82.2478 55.64 65.5077
 11 3 81.8252 55.8964 67.2164
 12 3 -19.6901 52.899 68.1474
 13 3 -20.1514 51.6511 67.0513
 14 3 -20.8247 51.6087 68.6992
 15 3 82.7666 52.6471 65.9282
 16 3 -22.7773 51.374 66.4664
 17 3 -21.0649 55.0102 68.4109
 18 3 -23.2791 56.1421 68.0715
ITEM: TIMESTEP
35
ITEM: NUMBER OF ATOMS
18
ITEM: BOX BOUNDS pp pp pp
-23.7974 84.347
8.04864 98.1689
19.3019 109.422
ITEM: ATOMS id type xu yu zu
 1 1 -20.325 53.6981 65.1683
 2 1 -21.1881 54.4884 64.3188
 3 1 -22.2935 53.9079 63.6264
 4 1 -22.4973 52.4804 63.7202
 5 1 -21.7062 51.6825 64.5819
 6 1 -20.6068 52.244 65.3
 7 2 -19.1088 54.3403 65.8158
 8 2 -23.5799 51.8556 62.8614
 9 3 -19.4227 55.0157 66.5678
 10 3 -18.5284 54.8596 65.0669
 11 3 -18.423 53.615 66.2701
 12 3 84.1295 52.5855 62.1562
 13 3 83.7727 51.389 63.4844
 14 3 -23.2154 51.0436 62.2164
 15 3 -21.0634 55.5972 64.3094
 16 3 -23.0109 54.4567 63.027
 17 3 -22.0001 50.6204 64.6504
 18 3 -19.9533 51.5832 65.897
ITEM: TIMESTEP
36
ITEM: NUMBER OF ATOMS
18
ITEM: BOX BOUNDS pp pp pp
-73.4862 34.8194
6.85725 97.1118
15.8028 106.057
ITEM: ATOMS id type xu yu zu
 1 1 -19.9705 51.062 60.4523
 2 1 -19.3225 50.7786 61.6939
 3 1 -18.5574 51.7917 62.3858
 4 1 -18.6087 53.1352 61.8903
 5 1 -19.5088 53.455 60.7982
 6 1 -20.1385 52.4361 60.0023
 7 2 -20.764 50.0241 59.6805
 8 2 -17.7751 54.265 62.489
 9 3 -20.862 50.2664 58.625
 10 3 -21.7803 50.0735 60.0951
 11 3 -20.3549 48.9949 59.7568
 12 3 -18.3913 54.7325 63.2353
 13 3 -17.4853 54.9742 61.7228
 14 3 -16.8865 53.8881 62.9778
 15 3 -19.335 49.7399 62.003
 16 3 -17.8125 51.5754 63.1603
 17 3 -19.7063 54.5031 60.5923
 18 3 -20.7247 52.6551 59.0818
ITEM: TIMESTEP
37
ITEM: NUMBER OF ATOMS
18
ITEM: BOX BOUNDS pp pp pp
-71.852 36.8943
5.93999 96.5619
11.2319 101.854
ITEM: ATOMS id type xu yu zu
 1 1 -16.4751 50.4961 57.2495
 2 1 -16.2819 50.9036 55.9114
 3 1 -17.3896 51.5452 55.199
 4 1 -18.6155 51.9491 55.8638
 5 1 -18.7553 51.5762 57.2302
 6 1 -17.7005 50.7829 57.9031
 7 2 -15.2531 49.781 57.9224
 8 2 -19.6462 52.7341 55.1179
 9 3 -15.1654 48.7483 57.6164
 10 3 -15.3047 49.7637 59.0054
 11 3 -14.3611 50.2866 57.5433
 12 3 -19.2579 53.7536 55.1588
 13 3 -20.5966 52.7551 55.6419
 14 3 -19.7289 52.416 54.0803
 15 3 -15.2977 50.8222 55.3903
 16 3 -17.3269 51.6367 54.0963
 17 3 -19.6135 51.9622 57.8115
 18 3 -17.7931 50.4404 58.9634
ITEM: TIMESTEP
38
ITEM: NUMBER OF ATOMS
18
ITEM: BOX BOUNDS pp pp pp
-69.9701 39.4972
4.32018 95.5429
7.8795 99.1022
ITEM: ATOMS id type xu yu zu
 1 1 -16.2761 50.0631 54.4221
 2 1 -16.561 49.0567 53.4655
 3 1 -15.5685 48.8513 52.4111
 4 1 -14.3762 49.6273 52.2844
 5 1 -14.17 50.7012 53.2053
 6 1 -15.1267 50.9318 54.2476
 7 2 -17.2329 50.4293 55.4878
 8 2 -13.3426 49.3007 51.2645
 9 3 -16.7012 50.4384 56.4123
 10 3 -18.0222 49.6978 55.5731
 11 3 -17.718 51.3733 55.2683
 12 3 -13.0793 50.1922 50.699
 13 3 -13.6479 48.5178 50.5695
 14 3 -12.4506 48.9918 51.7921
 15 3 -17.3702 48.3423 53.6534
 16 3 -15.7301 48.0255 51.6409
 17 3 -13.2271 51.2975 53.1272
 18 3 -15.0314 51.8375 54.8766
ITEM: TIMESTEP
39
ITEM: NUMBER OF ATOMS
18
ITEM: BOX BOUNDS pp pp pp
-68.1041 41.8861
2.2327 93.8913
4.78164 96.4402
ITEM: ATOMS id type xu yu zu
 1 1 -13.9558 47.096 49.9222
 2 1 -13.8303 48.4641 49.4254
 3 1 -12.8718 49.4033 49.9418
 4 1 -11.946 48.9808 50.9374
 5 1 -11.8815 47.582 51.2418
 6 1 -12.8084 46.6373 50.676
 7 2 -15.0418 46.1676 49.5874
 8 2 -11.1191 49.9796 51.7352
 9 3 -16.0934 46.508 49.7436
 10 3 -14.911 45.1935 50.0933
 11 3 -14.8841 45.9694 48.498
 12 3 -10.1246 49.5488 51.8329
 13 3 -11.5158 50.1738 52.7238
 14 3 -11.0322 50.9305 51.2113
 15 3 -14.5622 48.7816 48.6694
 16 3 -12.9534 50.4635 49.622
 17 3 -11.0892 47.2727 51.9503
 18 3 -12.777 45.638 51.1186
ITEM: TIMESTEP
40
ITEM: NUMBER OF ATOMS
18
ITEM: BOX BOUNDS pp pp pp
-68.062 42.8531
0.423332 92.8526
2.80745 95.2367
ITEM: ATOMS id type xu yu zu
 1 1 -13.684 46.3331 50.0379
 2 1 -12.6167 47.2419 50.3936
 3 1 -11.397 47.3501 49.587
 4 1 -11.2309 46.4642 48.4821
 5 1 -12.3724 45.6577 48.0416
 6 1 -13.6409 45.6762 48.7549
 7 2 -15.0275 46.5417 50.7001
 8 2 -9.99533 46.406 47.6639
 9 3 -15.1032 47.5272 51.2077
 10 3 -15.1117 45.7607 51.4451
 11 3 -15.8197 46.3209 49.9823
 12 3 -10.2858 46.3436 46.5991
 13 3 -9.53825 45.4765 48.0375
 14 3 -9.38929 47.2961 47.8753
 15 3 -12.7633 48.0049 51.1974
 16 3 -10.7023 48.127 49.8608
 17 3 -12.321 45.2411 47.0159
 18 3 -14.5178 45.1489 48.3507
ITEM: TIMESTEP
41
ITEM: NUMBER OF ATOMS
18
ITEM: BOX BOUNDS pp pp pp
-67.0717 44.3251
-2.19801 90.6326
2.25809 95.0887
ITEM: ATOMS id type xu yu zu
 1 1 -11.9252 45.4307 48.5279
 2 1 -12.2959 44.3409 47.7046
 3 1 -11.657 43.06 47.8694
 4 1 -10.5712 42.8211 48.7966
 5 1 -10.0957 44.0151 49.547
 6 1 -10.8847 45.2257 49.5364
 7 2 -12.6864 46.7088 48.3745
 8 2 -10.1152 41.4684 49.1685
 9 3 -11.9751 47.5642 48.2754
 10 3 -13.2287 46.89 49.3249
 11 3 -13.4075 46.6409 47.5673
 12 3 -9.40335 41.5754 49.9782
 13 3 -9.60064 40.9859 48.3348
 14 3 -10.9451 40.8703 49.5271
 15 3 -13.1689 44.4455 47.0109
 16 3 -11.9283 42.3686 47.0891
 17 3 -9.33908 43.9042 50.3359
 18 3 -10.5643 46.005 50.2526
ITEM: TIMESTEP
42
ITEM: NUMBER OF ATOMS
18
ITEM: BOX BOUNDS pp pp pp
-65.5866 46.1547
-4.78904 88.3288
0.439804 93.5576
ITEM: ATOMS id type xu yu zu
 1 1 -9.89279 42.2819 45.7767
 2 1 -10.403 42.986 46.9511
 3 1 -10.4513 42.2784 48.2145
 4 1 -9.58762 41.103 48.3451
 5 1 -9.04668 40.4045 47.1865
 6 1 -9.17094 41.0244 45.931
 7 2 -9.98061 43.05 44.5305
 8 2 -9.27832 40.6449 49.7285
 9 3 -9.0459 43.5724 44.4474
 10 3 -10.839 43.7438 44.5034
 11 3 -10.0702 42.3789 43.6856
 12 3 -8.5501 39.8352 49.6918
 13 3 -10.1742 40.3009 50.2454
 14 3 -8.84689 41.4715 50.3118
 15 3 -10.7712 43.9816 46.8852
 16 3 -11.0922 42.7441 49.0079
 17 3 -8.33969 39.5581 47.3111
 18 3 -8.62363 40.5457 45.1111
ITEM: TIMESTEP
43
ITEM: NUMBER OF ATOMS
18
ITEM: BOX BOUNDS pp pp pp
-64.9224 47.1542
-7.05759 86.3396
-1.50686 91.8903
ITEM: ATOMS id type xu yu zu
 1 1 -8.00013 39.9726 44.1862
 2 1 -8.78018 40.9786 44.9336
 3 1 -9.81565 40.6457 45.8347
 4 1 -10.2522 39.3038 45.9536
 5 1 -9.58792 38.2664 45.1559
 6 1 -8.50167 38.6076 44.2704
 7 2 -6.91175 40.346 43.2317
 8 2 -11.0104 38.9217 47.1978
 9 3 -7.17345 41.3139 42.7641
 10 3 -6.68222 39.6776 42.3726
 11 3 -6.01447 40.4411 43.8527
 12 3 -10.2827 38.853 48.0108
 13 3 -11.4575 37.9342 47.1367
 14 3 -11.7537 39.625 47.5392
 15 3 -8.57687 42.044 44.8266