ITEM: TIMESTEP
0
ITEM: NUMBER OF ATOMS
2
ITEM: BOX BOUNDS pp pp pp
-5.23605 54.2864
1.40777 51.0098
0.00696182 49.609
ITEM: ATOMS id type xu yu zu
 1 1 1 2 3
 2 1 4 5 6
ITEM: TIMESTEP
1
ITEM: NUMBER OF ATOMS
2
ITEM: BOX BOUNDS pp pp pp
-5.23605 54.2864
1.40777 51.0098
0.00696182 49.609
ITEM: ATOMS id type xu yu zu
 1 1 7 8 9
 2 1 10 11 12