ITEM: TIMESTEP
0
ITEM: NUMBER OF ATOMS
2
ITEM: BOX BOUNDS pp pp pp
-5.23605 54.2864
1.40777 51.0098
0.00696182 49.609
ITEM: ATOMS id type xu yu zu
 1 1 13 14 15
 2 1 16 17 18
ITEM: TIMESTEP
1
ITEM: NUMBER OF ATOMS
2
ITEM: BOX BOUNDS pp pp pp
-5.23605 54.2864
1.40777 51.0098
0.00696182 49.609
ITEM: ATOMS id type xu yu zu
 1 1 19 20 21
 2 1 22 23 24