LAMMPS data file. msi2lmp v3.9.8 / 06 Oct 2016 / CGCMM for CuMOF-porous

     96 atoms
    112 bonds
    200 angles
    304 dihedrals
     48 impropers

   8 atom types
  10 bond types
  19 angle types
  32 dihedral types
   8 improper types

    -0.544191710    14.138808290 xlo xhi
     0.000001722     8.266001722 ylo yhi
    -0.172233012    16.362466798 zlo zhi
     0.000000000    -0.799135919     0.000000000 xy xz yz

Masses

   1  14.006700 # np
   2  18.998400 # f
   3  12.011150 # c
   4  12.011150 # c5
   5   0.000000 # xx
   6   1.007970 # h
   7  12.011150 # cp
   8  63.546000 # Cu

Pair Coeffs # lj/cut/coul/long

   1   0.1669999743   3.5012320066 # np
   2   0.0687685101   3.0808078941 # f
   3   0.1599999990   3.4745050026 # c
   4   0.1479999981   3.6170487995 # c5
   5   0.1479999981   3.6170487995 # xx
   6   0.0380000011   2.4499714540 # h
   7   0.1479999981   3.6170487995 # cp
   8   9.4389999720   2.3379999999 # Cu

Bond Coeffs # harmonic

   1     0.0000     0.0000 # np-Cu
   2   320.0000     1.3800 # np-c5
   3   496.0000     1.3630 # f-c
   4   283.0924     1.5100 # c-c5
   5   280.0000     1.3900 # c5-c5
   6   280.0000     1.3400 # c5-cp
   7     0.0000     0.0000 # c5-xx
   8   363.4164     1.0800 # xx-h
   9   363.4164     1.0800 # h-cp
  10   340.6175     1.1050 # c-h

Angle Coeffs # harmonic

   1    70.0000   128.8000 # c5-np-Cu
   2    75.1000   114.0000 # c5-np-c5
   3     0.0000     0.0000 # f-c-f
   4     0.0000     0.0000 # f-c-c5
   5   102.0000   134.0000 # np-c5-np
   6    50.0000   120.0000 # np-c5-c
   7    90.0000   120.0000 # np-c5-c5
   8    90.0000   120.0000 # np-c5-cp
   9    90.0000   120.0000 # c5-c5-cp
  10    90.0000   120.0000 # np-c5-xx
  11    90.0000   120.0000 # c5-c5-xx
  12    37.0000   120.0000 # c5-xx-h
  13    90.0000   120.0000 # c5-xx-c5
  14    37.0000   120.0000 # c5-cp-h
  15     0.0000     0.0000 # c5-cp-c5
  16    44.2000   120.0000 # c-c5-c5
  17    44.4000   110.0000 # c5-c-h
  18     0.0000     0.0000 # c5-c-c5
  19     0.0000     0.0000 # np-Cu-np

Dihedral Coeffs # harmonic

  1     0.0000   1   0 # c5-np-Cu-np
  2     1.0000  -1   2 # Cu-np-c5-np
  3     1.0000  -1   2 # Cu-np-c5-c
  4     1.0000  -1   2 # c5-np-c5-np
  5     1.0000  -1   2 # c5-np-c5-c
  6     1.0000  -1   2 # Cu-np-c5-c5
  7     1.0000  -1   2 # Cu-np-c5-cp
  8     1.0000  -1   2 # c5-np-c5-c5
  9     1.0000  -1   2 # c5-np-c5-cp
 10     1.0000  -1   2 # Cu-np-c5-xx
 11     1.0000  -1   2 # c5-np-c5-xx
 12     0.0000   1   2 # f-c-c5-np
 13     3.0000  -1   2 # np-c5-c5-np
 14     3.0000  -1   2 # np-c5-c5-xx
 15     3.0000  -1   2 # np-c5-c5-cp
 16     3.0000  -1   2 # xx-c5-c5-cp
 17     3.0000  -1   2 # np-c5-cp-h
 18     3.0000  -1   2 # np-c5-cp-c5
 19     3.0000  -1   2 # c5-c5-cp-h
 20     3.0000  -1   2 # c5-c5-cp-c5
 21     3.0000  -1   2 # np-c5-xx-h
 22     3.0000  -1   2 # np-c5-xx-c5
 23     3.0000  -1   2 # c5-c5-xx-h
 24     3.0000  -1   2 # c5-c5-xx-c5
 25     3.0000  -1   2 # cp-c5-c5-cp
 26     3.0000  -1   2 # np-c5-c5-c
 27     3.0000  -1   2 # c-c5-c5-xx
 28     0.0000   1   2 # h-c-c5-np
 29     0.0000   1   2 # c5-c-c5-np
 30     0.0000   1   2 # h-c-c5-c5
 31     0.6750   1   4 # c5-c-c5-c5
 32     3.0000  -1   2 # c-c5-c5-cp

Improper Coeffs # cvff

    1     0.3700  -1   2 # Cu-np-c5-c5
    2     0.0000   0   0 # np-c5-np-c
    3     0.3700  -1   2 # np-c5-c5-cp
    4     0.3700  -1   2 # np-c5-c5-xx
    5     0.3700  -1   2 # c5-xx-c5-h
    6     0.3700  -1   2 # c5-cp-c5-h
    7     0.3700  -1   2 # np-c5-c5-c
    8     0.0000   0   0 # c5-c-c5-h

Atoms # full

      1      1   1  0.000000     9.166907639     1.326610340     9.165349451   0   0   0 # np
      2      1   1  0.000000     7.689576055     0.764770320    10.798316404   0   0   0 # np
      3      1   2  0.000000     9.795081419     3.361286240    11.306427730   0   0   0 # f
      4      1   2  0.000000    11.069741629     1.583186980    11.302790096   0   0   0 # f
      5      1   2  0.000000     9.426648650     1.749994860    12.750237717   0   0   0 # f
      6      1   3  0.000000     9.781083027     2.004091700    11.468467788   0   0   0 # c
      7      1   4  0.000000     8.862516208     1.345456820    10.478039269   0   0   0 # c5
      8      1   4  0.000000     8.104645768     0.667644820     8.559683397   0   0   0 # c5
      9      1   4  0.000000     7.177595312     0.313198740     9.585826867   0   0   0 # c5
     10      1   5  0.000000     5.987387314     7.899733540     9.321602364   0   0   0 # xx
     11      1   6  0.000000     5.276316696     7.623979780    10.104851094   0   0   0 # h
     12      1   1  0.000000     1.825407639     5.459610340     9.165349451   0   0   0 # np
     13      1   1  0.000000     0.348076055     4.897770320    10.798316404   0   0   0 # np
     14      1   2  0.000000     2.453581419     7.494286240    11.306427730   0   0   0 # f
     15      1   2  0.000000     3.728241629     5.716186980    11.302790096   0   0   0 # f
     16      1   2  0.000000     2.085148650     5.882994860    12.750237717   0   0   0 # f
     17      1   3  0.000000     2.439583027     6.137091700    11.468467788   0   0   0 # c
     18      1   4  0.000000     1.521016208     5.478456820    10.478039269   0   0   0 # c5
     19      1   4  0.000000     0.763145768     4.800644820     8.559683397   0   0   0 # c5
     20      1   4  0.000000    -0.163904688     4.446198740     9.585826867   0   0   0 # c5
     21      1   7  0.000000    13.328887314     3.766733540     9.321602364   0   0   0 # cp
     22      1   6  0.000000    12.617816696     3.490979780    10.104851094   0   0   0 # h
     23      1   1  0.000000     4.317388483     1.326610340    15.636700263   0   0   0 # np
     24      1   1  0.000000     5.794720066     0.764770320    14.003733309   0   0   0 # np
     25      1   2  0.000000     3.689214703     3.361286240    13.495621984   0   0   0 # f
     26      1   2  0.000000     2.414554493     1.583269640    13.499259618   0   0   0 # f
     27      1   2  0.000000     4.057647471     1.749994860    12.051811997   0   0   0 # f
     28      1   3  0.000000     3.703213095     2.004091700    13.333581926   0   0   0 # c
     29      1   4  0.000000     4.621779914     1.345456820    14.324010445   0   0   0 # c5
     30      1   4  0.000000     5.379650354     0.667727480    16.242366317   0   0   0 # c5
     31      1   4  0.000000     6.306700809     0.313198740    15.216222846   0   0   0 # c5
     32      1   3  0.000000     7.496908807     7.899733540    15.480447349   0   0   0 # c
     33      1   6  0.000000     8.207979426     7.623979780    14.697198619   0   0   0 # h
     34      1   1  0.000000    11.658888483     5.459610340    15.636700263   0   0   0 # np
     35      1   1  0.000000    13.136220066     4.897770320    14.003733309   0   0   0 # np
     36      1   2  0.000000    11.030714703     7.494286240    13.495621984   0   0   0 # f
     37      1   2  0.000000     9.756054493     5.716269640    13.499259618   0   0   0 # f
     38      1   2  0.000000    11.399147471     5.882994860    12.051811997   0   0   0 # f
     39      1   3  0.000000    11.044713095     6.137091700    13.333581926   0   0   0 # c
     40      1   4  0.000000    11.963279914     5.478456820    14.324010445   0   0   0 # c5
     41      1   4  0.000000    12.721150354     4.800727480    16.242366317   0   0   0 # c5
     42      1   4  0.000000    -1.034799191     4.446198740    15.216222846   1   0   0 # c5
     43      1   3  0.000000     0.155408807     3.766733540    15.480447349   0   0   0 # c
     44      1   6  0.000000     0.866479426     3.490979780    14.697198619   0   0   0 # h
     45      1   1  0.000000     4.716956442     6.939389660     7.369350358   0   0   0 # np
     46      1   1  0.000000     6.194288026     7.501229680     5.736383405   0   0   0 # np
     47      1   2  0.000000     4.088782662     4.904713760     5.228272080   0   0   0 # f
     48      1   2  0.000000     2.814122453     6.682730360     5.231909714   0   0   0 # f
     49      1   2  0.000000     4.457215431     6.516005140     3.784462092   0   0   0 # f
     50      1   3  0.000000     4.102781054     6.261908300     5.066232022   0   0   0 # c
     51      1   4  0.000000     5.021339882     6.920543180     6.056825887   0   0   0 # c5
     52      1   4  0.000000     5.779218314     7.598355180     7.975016412   0   0   0 # c5
     53      1   4  0.000000     6.706268769     7.952801260     6.948872942   0   0   0 # c5
     54      1   7  0.000000     7.896476767     0.366266460     7.213097445   0   0   0 # cp
     55      1   6  0.000000     8.607547385     0.642020220     6.429848715   0   0   0 # h
     56      1   1  0.000000    12.058456442     2.806389660     7.369350358   0   0   0 # np
     57      1   1  0.000000    13.535788026     3.368229680     5.736383405   0   0   0 # np
     58      1   2  0.000000    11.430282662     0.771713760     5.228272080   0   0   0 # f
     59      1   2  0.000000    10.155622453     2.549730360     5.231909714   0   0   0 # f
     60      1   2  0.000000    11.798715431     2.383005140     3.784462092   0   0   0 # f
     61      1   3  0.000000    11.444281054     2.128908300     5.066232022   0   0   0 # c
     62      1   4  0.000000    12.362839882     2.787543180     6.056825887   0   0   0 # c5
     63      1   4  0.000000    13.120718314     3.465355180     7.975016412   0   0   0 # c5
     64      1   4  0.000000    -0.635231231     3.819801260     6.948872942   1   0   0 # c5
     65      1   7  0.000000     0.554976767     4.499266460     7.213097445   0   0   0 # cp
     66      1   6  0.000000     1.266047385     4.775020220     6.429848715   0   0   0 # h
     67      1   1  0.000000     9.566475598     6.939389660     0.897999547   0   0   0 # np
     68      1   1  0.000000     8.089144015     7.501229680     2.530966500   0   0   0 # np
     69      1   2  0.000000    10.194649378     4.904713760     3.039077825   0   0   0 # f
     70      1   2  0.000000    11.469309588     6.682813020     3.035440191   0   0   0 # f
     71      1   2  0.000000     9.826216610     6.516005140     4.482887812   0   0   0 # f
     72      1   3  0.000000    10.180650986     6.261908300     3.201117883   0   0   0 # c
     73      1   4  0.000000     9.262084168     6.920543180     2.210689365   0   0   0 # c5
     74      1   4  0.000000     8.504213727     7.598355180     0.292333493   0   0   0 # c5
     75      1   4  0.000000     7.577163272     7.952801260     1.318476963   0   0   0 # c5
     76      1   5  0.000000     6.386955274     0.366266460     1.054252460   0   0   0 # xx
     77      1   6  0.000000     5.675884655     0.642020220     1.837501190   0   0   0 # h
     78      1   1  0.000000     2.224975598     2.806389660     0.897999547   0   0   0 # np
     79      1   1  0.000000     0.747644015     3.368229680     2.530966500   0   0   0 # np
     80      1   2  0.000000     2.853149378     0.771713760     3.039077825   0   0   0 # f
     81      1   2  0.000000     4.127809588     2.549813020     3.035440191   0   0   0 # f
     82      1   2  0.000000     2.484716610     2.383005140     4.482887812   0   0   0 # f
     83      1   3  0.000000     2.839150986     2.128908300     3.201117883   0   0   0 # c
     84      1   4  0.000000     1.920584168     2.787543180     2.210689365   0   0   0 # c5
     85      1   4  0.000000     1.162713727     3.465355180     0.292333493   0   0   0 # c5
     86      1   4  0.000000     0.235663272     3.819801260     1.318476963   0   0   0 # c5
     87      1   7  0.000000    13.728455274     4.499266460     1.054252460   0   0   0 # cp
     88      1   6  0.000000    13.017384655     4.775020220     1.837501190   0   0   0 # h
     89      1   8  0.000000    10.612682041     2.066500000     8.267349905   0   0   0 # Cu
     90      1   8  0.000000     3.670750000     2.066500000     0.000000000   0   0   0 # Cu
     91      1   8  0.000000     3.271182041     6.199500000     8.267349905   0   0   0 # Cu
     92      1   8  0.000000    11.012250000     6.199500000     0.000000000   0   0   0 # Cu
     93      1   8  0.000000     6.742148061     0.729887800    12.401024857   0   0   0 # Cu
     94      1   8  0.000000    -0.599351939     4.862887800    12.401024857   0   0   0 # Cu
     95      1   8  0.000000     7.141716020     7.536112200     4.133674952   0   0   0 # Cu
     96      1   8  0.000000    -0.199783980     3.403112200     4.133674952   0   0   0 # Cu

Bonds

     1   1      1     89
     2   2      1      7
     3   2      1      8
     4   1      2     93
     5   2      2      7
     6   2      2      9
     7   3      3      6
     8   3      4      6
     9   3      5      6
    10   4      6      7
    11   5      8      9
    12   6      8     54
    13   7      9     10
    14   8     10     11
    15   7     52     10
    16   1     12     91
    17   2     12     18
    18   2     12     19
    19   1     13     94
    20   2     13     18
    21   2     13     20
    22   3     14     17
    23   3     15     17
    24   3     16     17
    25   4     17     18
    26   5     19     20
    27   6     19     65
    28   6     20     21
    29   9     22     21
    30   6     63     21
    31   2     23     29
    32   2     23     30
    33   1     23     90
    34   1     24     93
    35   2     24     29
    36   2     24     31
    37   3     25     28
    38   3     26     28
    39   3     27     28
    40   4     28     29
    41   5     30     31
    42   7     30     76
    43   4     32     31
    44  10     32     33
    45   4     32     74
    46   2     34     40
    47   2     34     41
    48   1     34     92
    49   2     35     40
    50   2     35     42
    51   1     35     94
    52   3     36     39
    53   3     37     39
    54   3     38     39
    55   4     39     40
    56   5     41     42
    57   6     41     87
    58   4     43     42
    59  10     43     44
    60   4     43     85
    61   1     45     91
    62   2     45     51
    63   2     45     52
    64   1     46     95
    65   2     46     51
    66   2     46     53
    67   3     47     50
    68   3     48     50
    69   3     49     50
    70   4     50     51
    71   5     52     53
    72   6     53     54
    73   9     55     54
    74   1     56     89
    75   2     56     62
    76   2     56     63
    77   2     57     62
    78   2     57     64
    79   1     57     96
    80   3     58     61
    81   3     59     61
    82   3     60     61
    83   4     61     62
    84   5     63     64
    85   6     64     65
    86   9     66     65
    87   1     67     92
    88   2     67     73
    89   2     67     74
    90   1     68     95
    91   2     68     73
    92   2     68     75
    93   3     69     72
    94   3     70     72
    95   3     71     72
    96   4     72     73
    97   5     74     75
    98   7     75     76
    99   8     76     77
   100   1     78     90
   101   2     78     84
   102   2     78     85
   103   1     79     96
   104   2     79     84
   105   2     79     86
   106   3     80     83
   107   3     81     83
   108   3     82     83
   109   4     83     84
   110   5     85     86
   111   6     86     87
   112   9     88     87

Angles

     1   1      7      1     89
     2   1      8      1     89
     3   2      7      1      8
     4   1      7      2     93
     5   1      9      2     93
     6   2      7      2      9
     7   3      3      6      4
     8   3      3      6      5
     9   4      3      6      7
    10   3      4      6      5
    11   4      4      6      7
    12   4      5      6      7
    13   5      1      7      2
    14   6      1      7      6
    15   6      2      7      6
    16   7      1      8      9
    17   8      1      8     54
    18   9      9      8     54
    19   7      2      9      8
    20  10      2      9     10
    21  11      8      9     10
    22  12     52     10     11
    23  12      9     10     11
    24  13     52     10      9
    25   1     18     12     91
    26   1     19     12     91
    27   2     18     12     19
    28   1     18     13     94
    29   1     20     13     94
    30   2     18     13     20
    31   3     14     17     15
    32   3     14     17     16
    33   4     14     17     18
    34   3     15     17     16
    35   4     15     17     18
    36   4     16     17     18
    37   5     12     18     13
    38   6     12     18     17
    39   6     13     18     17
    40   7     12     19     20
    41   8     12     19     65
    42   9     20     19     65
    43   7     13     20     19
    44   8     13     20     21
    45   9     19     20     21
    46  14     63     21     22
    47  14     20     21     22
    48  15     63     21     20
    49   2     29     23     30
    50   1     29     23     90
    51   1     30     23     90
    52   1     29     24     93
    53   1     31     24     93
    54   2     29     24     31
    55   3     25     28     26
    56   3     25     28     27
    57   4     25     28     29
    58   3     26     28     27
    59   4     26     28     29
    60   4     27     28     29
    61   5     23     29     24
    62   6     23     29     28
    63   6     24     29     28
    64   7     23     30     31
    65  10     23     30     76
    66  11     31     30     76
    67   7     24     31     30
    68   6     24     31     32
    69  16     32     31     30
    70  17     31     32     33
    71  17     74     32     33
    72  18     31     32     74
    73   2     40     34     41
    74   1     40     34     92
    75   1     41     34     92
    76   2     40     35     42
    77   1     40     35     94
    78   1     42     35     94
    79   3     36     39     37
    80   3     36     39     38
    81   4     36     39     40
    82   3     37     39     38
    83   4     37     39     40
    84   4     38     39     40
    85   5     34     40     35
    86   6     34     40     39
    87   6     35     40     39
    88   7     34     41     42
    89   8     34     41     87
    90   9     42     41     87
    91   7     35     42     41
    92   6     35     42     43
    93  16     43     42     41
    94  17     42     43     44
    95  17     85     43     44
    96  18     42     43     85
    97   1     51     45     91
    98   1     52     45     91
    99   2     51     45     52
   100   1     51     46     95
   101   1     53     46     95
   102   2     51     46     53
   103   3     47     50     48
   104   3     47     50     49
   105   4     47     50     51
   106   3     48     50     49
   107   4     48     50     51
   108   4     49     50     51
   109   5     45     51     46
   110   6     45     51     50
   111   6     46     51     50
   112  10     45     52     10
   113  11     53     52     10
   114   7     45     52     53
   115   7     46     53     52
   116   8     46     53     54
   117   9     52     53     54
   118  14      8     54     55
   119  15      8     54     53
   120  14     53     54     55
   121   1     62     56     89
   122   1     63     56     89
   123   2     62     56     63
   124   2     62     57     64
   125   1     62     57     96
   126   1     64     57     96
   127   3     58     61     59
   128   3     58     61     60
   129   4     58     61     62
   130   3     59     61     60
   131   4     59     61     62
   132   4     60     61     62
   133   5     56     62     57
   134   6     56     62     61
   135   6     57     62     61
   136   8     56     63     21
   137   9     64     63     21
   138   7     56     63     64
   139   7     57     64     63
   140   8     57     64     65
   141   9     63     64     65
   142  14     19     65     66
   143  15     19     65     64
   144  14     64     65     66
   145   1     73     67     92
   146   1     74     67     92
   147   2     73     67     74
   148   1     73     68     95
   149   1     75     68     95
   150   2     73     68     75
   151   3     69     72     70
   152   3     69     72     71
   153   4     69     72     73
   154   3     70     72     71
   155   4     70     72     73
   156   4     71     72     73
   157   5     67     73     68
   158   6     67     73     72
   159   6     68     73     72
   160   7     67     74     75
   161   6     67     74     32
   162  16     32     74     75
   163   7     68     75     74
   164  10     68     75     76
   165  11     74     75     76
   166  12     30     76     77
   167  12     75     76     77
   168  13     30     76     75
   169   1     84     78     90
   170   1     85     78     90
   171   2     84     78     85
   172   1     84     79     96
   173   1     86     79     96
   174   2     84     79     86
   175   3     80     83     81
   176   3     80     83     82
   177   4     80     83     84
   178   3     81     83     82
   179   4     81     83     84
   180   4     82     83     84
   181   5     78     84     79
   182   6     78     84     83
   183   6     79     84     83
   184   7     78     85     86
   185   6     78     85     43
   186  16     43     85     86
   187   7     79     86     85
   188   8     79     86     87
   189   9     85     86     87
   190  14     41     87     88
   191  14     86     87     88
   192  15     41     87     86
   193  19      1     89     56
   194  19     78     90     23
   195  19     12     91     45
   196  19     67     92     34
   197  19      2     93     24
   198  19     13     94     35
   199  19     46     95     68
   200  19     79     96     57

Dihedrals

     1   1      7      1     89     56
     2   1      8      1     89     56
     3   2     89      1      7      2
     4   3     89      1      7      6
     5   4      8      1      7      2
     6   5      8      1      7      6
     7   6     89      1      8      9
     8   7     89      1      8     54
     9   8      7      1      8      9
    10   9      7      1      8     54
    11   1      7      2     93     24
    12   1      9      2     93     24
    13   2     93      2      7      1
    14   3     93      2      7      6
    15   4      9      2      7      1
    16   5      9      2      7      6
    17   6     93      2      9      8
    18  10     93      2      9     10
    19   8      7      2      9      8
    20  11      7      2      9     10
    21  12      3      6      7      1
    22  12      3      6      7      2
    23  12      4      6      7      1
    24  12      4      6      7      2
    25  12      5      6      7      1
    26  12      5      6      7      2
    27  13      1      8      9      2
    28  14      1      8      9     10
    29  15      2      9      8     54
    30  16     10      9      8     54
    31  17      1      8     54     55
    32  18      1      8     54     53
    33  19      9      8     54     55
    34  20      9      8     54     53
    35  21      2      9     10     11
    36  22      2      9     10     52
    37  23      8      9     10     11
    38  24      8      9     10     52
    39  21     45     52     10     11
    40  23     53     52     10     11
    41  22     45     52     10      9
    42  24     53     52     10      9
    43   1     18     12     91     45
    44   1     19     12     91     45
    45   2     91     12     18     13
    46   3     91     12     18     17
    47   4     19     12     18     13
    48   5     19     12     18     17
    49   6     91     12     19     20
    50   7     91     12     19     65
    51   8     18     12     19     20
    52   9     18     12     19     65
    53   1     18     13     94     35
    54   1     20     13     94     35
    55   2     94     13     18     12
    56   3     94     13     18     17
    57   4     20     13     18     12
    58   5     20     13     18     17
    59   6     94     13     20     19
    60   7     94     13     20     21
    61   8     18     13     20     19
    62   9     18     13     20     21
    63  12     14     17     18     12
    64  12     14     17     18     13
    65  12     15     17     18     12
    66  12     15     17     18     13
    67  12     16     17     18     12
    68  12     16     17     18     13
    69  13     12     19     20     13
    70  15     12     19     20     21
    71  15     13     20     19     65
    72  25     65     19     20     21
    73  17     12     19     65     66
    74  18     12     19     65     64
    75  19     20     19     65     66
    76  20     20     19     65     64
    77  17     13     20     21     22
    78  18     13     20     21     63
    79  19     19     20     21     22
    80  20     19     20     21     63
    81  17     56     63     21     22
    82  19     64     63     21     22
    83  18     56     63     21     20
    84  20     64     63     21     20
    85   4     30     23     29     24
    86   5     30     23     29     28
    87   2     90     23     29     24
    88   3     90     23     29     28
    89   8     29     23     30     31
    90  11     29     23     30     76
    91   6     90     23     30     31
    92  10     90     23     30     76
    93   1     29     23     90     78
    94   1     30     23     90     78
    95   1     29     24     93      2
    96   1     31     24     93      2
    97   2     93     24     29     23
    98   3     93     24     29     28
    99   4     31     24     29     23
   100   5     31     24     29     28
   101   6     93     24     31     30
   102   3     93     24     31     32
   103   8     29     24     31     30
   104   5     29     24     31     32
   105  12     25     28     29     23
   106  12     25     28     29     24
   107  12     26     28     29     23
   108  12     26     28     29     24
   109  12     27     28     29     23
   110  12     27     28     29     24
   111  13     23     30     31     24
   112  26     23     30     31     32
   113  14     24     31     30     76
   114  27     32     31     30     76
   115  21     23     30     76     77
   116  22     23     30     76     75
   117  23     31     30     76     77
   118  24     31     30     76     75
   119  28     33     32     31     24
   120  29     74     32     31     24
   121  30     33     32     31     30
   122  31     74     32     31     30
   123  28     33     32     74     67
   124  30     33     32     74     75
   125  29     31     32     74     67
   126  31     31     32     74     75
   127   4     41     34     40     35
   128   5     41     34     40     39
   129   2     92     34     40     35
   130   3     92     34     40     39
   131   8     40     34     41     42
   132   9     40     34     41     87
   133   6     92     34     41     42
   134   7     92     34     41     87
   135   1     40     34     92     67
   136   1     41     34     92     67
   137   4     42     35     40     34
   138   5     42     35     40     39
   139   2     94     35     40     34
   140   3     94     35     40     39
   141   8     40     35     42     41
   142   5     40     35     42     43
   143   6     94     35     42     41
   144   3     94     35     42     43
   145   1     40     35     94     13
   146   1     42     35     94     13
   147  12     36     39     40     34
   148  12     36     39     40     35
   149  12     37     39     40     34
   150  12     37     39     40     35
   151  12     38     39     40     34
   152  12     38     39     40     35
   153  13     34     41     42     35
   154  26     34     41     42     43
   155  15     35     42     41     87
   156  32     43     42     41     87
   157  17     34     41     87     88
   158  18     34     41     87     86
   159  19     42     41     87     88
   160  20     42     41     87     86
   161  28     44     43     42     35
   162  29     85     43     42     35
   163  30     44     43     42     41
   164  31     85     43     42     41
   165  28     44     43     85     78
   166  30     44     43     85     86
   167  29     42     43     85     78
   168  31     42     43     85     86
   169   1     51     45     91     12
   170   1     52     45     91     12
   171   2     91     45     51     46
   172   3     91     45     51     50
   173   4     52     45     51     46
   174   5     52     45     51     50
   175  10     91     45     52     10
   176   6     91     45     52     53
   177  11     51     45     52     10
   178   8     51     45     52     53
   179   1     51     46     95     68
   180   1     53     46     95     68
   181   2     95     46     51     45
   182   3     95     46     51     50
   183   4     53     46     51     45
   184   5     53     46     51     50
   185   6     95     46     53     52
   186   7     95     46     53     54
   187   8     51     46     53     52
   188   9     51     46     53     54
   189  12     47     50     51     45
   190  12     47     50     51     46
   191  12     48     50     51     45
   192  12     48     50     51     46
   193  12     49     50     51     45
   194  12     49     50     51     46
   195  14     46     53     52     10
   196  16     10     52     53     54
   197  13     45     52     53     46
   198  15     45     52     53     54
   199  18     46     53     54      8
   200  17     46     53     54     55
   201  20     52     53     54      8
   202  19     52     53     54     55
   203   1     62     56     89      1
   204   1     63     56     89      1
   205   2     89     56     62     57
   206   3     89     56     62     61
   207   4     63     56     62     57
   208   5     63     56     62     61
   209   7     89     56     63     21
   210   6     89     56     63     64